# vtk DataFile Version 2.0
Steady-state stabilized finite element formulation for the 2D incopmpressible Navier Stokes equations
ASCII

DATASET UNSTRUCTURED_GRID
POINTS 8230 double
       2.2        0.41           0 
     2.188        0.41           0 
       2.2     0.39794           0 
    2.1818     0.39953           0 
     2.176        0.41           0 
       2.2     0.38588           0 
    2.1878     0.38913           0 
    2.1758     0.38914           0 
    2.1698     0.39954           0 
    2.1639        0.41           0 
       2.2     0.37382           0 
    2.1828     0.37793           0 
    2.1638     0.38915           0 
    2.1698     0.37876           0 
    2.1578     0.39955           0 
    2.1883     0.36809           0 
    2.1519        0.41           0 
    2.1758     0.36836           0 
       2.2     0.36176           0 
    2.1578     0.37877           0 
    2.1518     0.38916           0 
    2.1828      0.3586           0 
    2.1638     0.36837           0 
    2.1458     0.39956           0 
    2.1399        0.41           0 
    2.1698     0.35797           0 
       2.2     0.34971           0 
    2.1458     0.37878           0 
    2.1877     0.34756           0 
    2.1518     0.36838           0 
    2.1398     0.38917           0 
    2.1757     0.34757           0 
    2.1578     0.35798           0 
    2.1338     0.39956           0 
    2.1279        0.41           0 
    2.1637     0.34758           0 
       2.2     0.33765           0 
    2.1398     0.36839           0 
    2.1338     0.37878           0 
    2.1817     0.33718           0 
    2.1458     0.35799           0 
    2.1278     0.38918           0 
    2.1697     0.33719           0 
    2.1517     0.34759           0 
    2.1218     0.39957           0 
    2.1278     0.36839           0 
    2.1877     0.32678           0 
    2.1158        0.41           0 
    2.1577      0.3372           0 
    2.1338       0.358           0 
    2.1218     0.37879           0 
       2.2     0.32559           0 
    2.1757     0.32679           0 
    2.1397      0.3476           0 
    2.1158     0.38919           0 
    2.1637      0.3268           0 
    2.1457     0.33721           0 
    2.1098     0.39959           0 
    2.1218     0.35801           0 
    2.1158     0.36841           0 
    2.1277     0.34761           0 
    2.1098     0.37881           0 
    2.1828     0.31592           0 
    2.1038        0.41           0 
    2.1517     0.32681           0 
       2.2     0.31353           0 
    2.1697      0.3164           0 
    2.1337     0.33722           0 
    2.1038      0.3892           0 
    2.1577     0.31641           0 
    2.1397     0.32682           0 
    2.0978      0.3996           0 
    2.1098     0.35802           0 
    2.1877     0.30599           0 
    2.1038     0.36842           0 
    2.1157     0.34763           0 
    2.1757     0.30601           0 
    2.1217     0.33723           0 
    2.0978     0.37882           0 
    2.1457     0.31642           0 
    2.0918        0.41           0 
       2.2     0.30147           0 
    2.1637     0.30602           0 
    2.1277     0.32683           0 
    2.0918     0.38921           0 
    2.1517     0.30603           0 
    2.1337     0.31643           0 
    2.0858     0.39961           0 
    2.0978     0.35804           0 
    2.1037     0.34764           0 
    2.1853     0.29523           0 
    2.1097     0.33724           0 
    2.0918     0.36843           0 
    2.1697     0.29562           0 
    2.1157     0.32685           0 
    2.0858     0.37882           0 
    2.0798        0.41           0 
      2.14     0.30558           0 
       2.2     0.28941           0 
    2.1577     0.29563           0 
    2.1217     0.31645           0 
    2.0798     0.38921           0 
    2.0917     0.34765           0 
    2.0977     0.33725           0 
    2.0858     0.35804           0 
    2.1457     0.29564           0 
    2.0738      0.3996           0 
    2.1288     0.30471           0 
    2.1757     0.28522           0 
    2.1037     0.32685           0 
    2.0798     0.36844           0 
    2.1885     0.28288           0 
    2.1651     0.28679           0 
    2.1097     0.31646           0 
    2.0738     0.37883           0 
    2.0678        0.41           0 
       2.2     0.27735           0 
    2.1357     0.29296           0 
    2.1157     0.30606           0 
    2.0678      0.3892           0 
    2.0857     0.33726           0 
    2.0798     0.34765           0 
     2.191     0.27432           0 
     2.179     0.27542           0 
    2.0917     0.32686           0 
    2.0738     0.35805           0 
    2.1551     0.28095           0 
    2.1672     0.27655           0 
    2.0678     0.36844           0 
    2.0977     0.31647           0 
    2.0618     0.39959           0 
    2.1262     0.29083           0 
     2.142     0.28106           0 
    2.1037     0.30607           0 
    2.0618     0.37882           0 
    2.0557        0.41           0 
       2.2     0.26529           0 
    2.0558     0.38922           0 
    2.0737     0.33727           0 
    2.1143      0.2919           0 
    2.0797     0.32687           0 
    2.0678     0.34766           0 
    2.1841     0.26452           0 
    2.1721     0.26562           0 
    2.1312     0.27994           0 
    2.0857     0.31648           0 
    2.0618     0.35806           0 
    2.1602     0.26679           0 
    2.0951     0.30425           0 
    2.0558     0.36847           0 
    2.0498      0.3996           0 
    2.1482     0.26791           0 
    2.1193     0.28102           0 
    2.1006     0.29326           0 
    2.0498     0.37882           0 
    2.1363     0.26905           0 
    2.0617     0.33728           0 
    2.0677     0.32688           0 
    2.0437        0.41           0 
    2.1891     0.25362           0 
       2.2     0.25324           0 
    2.1771     0.25474           0 
    2.0737     0.31649           0 
    2.0558     0.34768           0 
    2.0831     0.30475           0 
    2.0438     0.38921           0 
    2.1074      0.2821           0 
    2.1651     0.25588           0 
    2.0498     0.35807           0 
    2.1243     0.27012           0 
    2.1533     0.25702           0 
    2.0886     0.29412           0 
    2.0438     0.36847           0 
    2.0378      0.3996           0 
    2.1412     0.25816           0 
    2.1124     0.27121           0 
    2.0378     0.37881           0 
    2.0937     0.28342           0 
    2.1294     0.25926           0 
    2.0557     0.32689           0 
    2.0497     0.33729           0 
    2.0617      0.3165           0 
    2.1821      0.2438           0 
    2.1701     0.24498           0 
    2.0677      0.3061           0 
    2.0438     0.34769           0 
    2.0317        0.41           0 
       2.2     0.24118           0 
    2.0767     0.29462           0 
    2.1582     0.24608           0 
    2.0318      0.3892           0 
    2.0378     0.35809           0 
     2.099     0.27276           0 
    2.1175     0.26035           0 
    2.1463     0.24727           0 
    2.0823     0.28407           0 
    2.0318     0.36849           0 
    2.0259     0.39962           0 
    2.1343     0.24835           0 
    2.1046     0.26214           0 
    2.0258     0.37889           0 
    2.0437     0.32691           0 
    2.0497     0.31651           0 
    2.0874     0.27332           0 
    2.0647     0.29526           0 
     2.187     0.23287           0 
    2.1751     0.23406           0 
    2.0377      0.3373           0 
    2.0557     0.30611           0 
    2.1225     0.24947           0 
    2.1632     0.23519           0 
    2.0318      0.3477           0 
    2.0704     0.28472           0 
    2.0197        0.41           0 
    2.1513     0.23628           0 
       2.2     0.22912           0 
    2.0198     0.38926           0 
    2.0257     0.35811           0 
    2.1102     0.25151           0 
    2.0926     0.26262           0 
    2.1394     0.23747           0 
    2.0758     0.27408           0 
    2.0198     0.36852           0 
    2.1274     0.23853           0 
    2.0528      0.2957           0 
    2.0139     0.39963           0 
    2.0377     0.31656           0 
    2.1904      0.2229           0 
    2.0436     0.30616           0 
    2.0317     0.32694           0 
    2.1801     0.22317           0 
    2.0982       0.252           0 
    2.1682     0.22426           0 
    2.0138     0.37887           0 
    2.0257     0.33732           0 
    2.0584     0.28511           0 
    2.0811     0.26328           0 
    2.1562     0.22547           0 
    2.1155     0.23974           0 
    2.0198     0.34772           0 
    2.1443     0.22654           0 
    2.0639     0.27464           0 
    2.0076        0.41           0 
       2.2     0.21706           0 
    2.0138     0.35812           0 
    2.0078     0.38926           0 
    2.0863     0.25247           0 
    2.1324     0.22777           0 
    2.1036     0.24077           0 
    2.0691     0.26415           0 
    2.0078     0.36851           0 
    2.0464     0.28553           0 
    2.0316      0.3062           0 
    2.0257     0.31653           0 
    2.1204     0.22881           0 
    2.1874     0.21219           0 
    2.0019     0.39967           0 
    2.1732     0.21338           0 
    2.0197     0.32694           0 
    2.0376     0.29579           0 
    2.1613     0.21457           0 
    2.0917     0.24197           0 
    2.0137     0.33734           0 
    2.0018     0.37891           0 
    2.0743     0.25336           0 
    2.1493     0.21567           0 
    2.1085     0.23007           0 
    2.0078     0.34775           0 
    2.0496     0.27501           0 
    2.1374     0.21688           0 
    1.9956        0.41           0 
    2.0018     0.35812           0 
[...]
POINT_DATA 8230
SCALARS pressure double
LOOKUP_TABLE default
 0.00031851 
 0.00043824 
 0.00025737 
 0.00055841 
 0.00072023 
 0.00021828 
 0.00041679 
  0.0007289 
 0.00089352 
  0.0010553 
 0.00015023 
 0.00052097 
  0.0010684 
 0.00090162 
  0.0012349 
 0.00036141 
  0.0013998 
 0.00072959 
 0.00013924 
  0.0012451 
   0.001413 
 0.00050707 
  0.0010736 
  0.0015802 
  0.0017472 
 0.00089283 
 0.00019073 
  0.0015909 
 0.00038324 
  0.0014198 
  0.0017594 
 0.00071064 
  0.0012438 
  0.0019275 
   0.002096 
  0.0010626 
 0.00018885 
   0.001768 
  0.0019389 
 0.00053427 
   0.001594 
  0.0021077 
 0.00088206 
  0.0014163 
  0.0022764 
  0.0021173 
 0.00038327 
  0.0024462 
  0.0012367 
  0.0019442 
  0.0022879 
 0.00019704 
 0.00070692 
  0.0017692 
  0.0024574 
  0.0010601 
  0.0015908 
  0.0026266 
  0.0022951 
  0.0024675 
  0.0021211 
  0.0026384 
  0.0005052 
  0.0027977 
   0.001413 
 0.00014208 
 0.00088816 
  0.0019459 
  0.0028082 
  0.0012429 
  0.0017648 
  0.0029783 
  0.0026468 
 0.00037121 
  0.0028189 
  0.0024733 
 0.00072458 
  0.0022993 
  0.0029899 
  0.0015896 
  0.0031506 
 0.00019509 
  0.0010696 
   0.002125 
  0.0031601 
  0.0014235 
   0.001936 
  0.0033308 
  0.0029992 
  0.0028261 
  0.0004267 
  0.0026519 
  0.0031713 
 0.00089984 
  0.0024799 
  0.0033426 
  0.0035041 
   0.001746 
 0.00018505 
  0.0012501 
   0.002311 
   0.003513 
  0.0031795 
  0.0030052 
  0.0033524 
  0.0015824 
  0.0036842 
  0.0020974 
 0.00067231 
  0.0028297 
  0.0035245 
 0.00034756 
  0.0010223 
  0.0026618 
  0.0036962 
  0.0038586 
 0.00016568 
  0.0018791 
  0.0024869 
   0.003867 
  0.0033603 
  0.0035333 
 0.00029396 
 0.00061488 
   0.003184 
  0.0037065 
  0.0013271 
  0.0009677 
  0.0038785 
  0.0030063 
  0.0040385 
  0.0021827 
  0.0016977 
  0.0028042 
  0.0040506 
  0.0042139 
 0.00013278 
  0.0042222 
  0.0037149 
  0.0025396 
  0.0035433 
  0.0038881 
 0.00048033 
 0.00083441 
  0.0020468 
   0.003368 
  0.0040614 
  0.0011699 
  0.0031128 
  0.0042337 
  0.0043939 
  0.0015279 
  0.0023789 
  0.0029361 
  0.0044058 
  0.0018954 
    0.00407 
  0.0038962 
  0.0045703 
 0.00036184 
 0.00015317 
 0.00068175 
  0.0037241 
  0.0042439 
   0.003453 
   0.004578 
  0.0027392 
  0.0010304 
  0.0044174 
  0.0022343 
  0.0013826 
  0.0032907 
  0.0045905 
  0.0047498 
  0.0017439 
  0.0025907 
  0.0047622 
  0.0031337 
  0.0020896 
  0.0042518 
  0.0044263 
  0.0040773 
 0.00054248 
 0.00088938 
  0.0039015 
  0.0046006 
  0.0049275 
 0.00012931 
  0.0036312 
   0.001241 
  0.0049348 
  0.0047745 
  0.0029758 
  0.0024445 
  0.0015954 
  0.0034797 
  0.0049478 
   0.005106 
  0.0019464 
  0.0028177 
  0.0051201 
  0.0046092 
   0.004435 
  0.0033275 
  0.0039932 
 0.00040881 
 0.00075311 
  0.0047834 
  0.0042621 
  0.0022963 
  0.0010996 
  0.0049581 
  0.0038325 
  0.0052867 
  0.0014497 
 0.00013406 
   0.005293 
  0.0051325 
   0.002657 
  0.0031727 
  0.0018026 
  0.0036756 
  0.0053061 
   0.002157 
  0.0043614 
  0.0054646 
  0.0047933 
 0.00031904 
  0.0046225 
  0.0049686 
  0.0006174 
  0.0030162 
 0.00095947 
  0.0054789 
  0.0051427 
  0.0041842 
  0.0035228 
  0.0013082 
  0.0025021 
   0.005317 
  0.0016588 
   0.004031 
  0.0056464 
 0.00012545 
  0.0054913 
  0.0056524 
  0.0033689 
  0.0020123 
  0.0028589 
  0.0038798 
  0.0056656 
  0.0045494 
  0.0049781 
  0.0051523 
  0.0023647 
  0.0004006 
  0.0058245 
 0.00081627 
  0.0053278 
  0.0048039 
  0.0011639 
  0.0032143 
   0.005502 
  0.0058389 
  0.0037249 
  0.0015147 
  0.0027171 
   0.005677 
  0.0044536 
  0.0018624 
  0.0060077 
  0.0058515 
  0.0042796 
  0.0001223 
   0.006013 
  0.0022167 
  0.0035712 
    0.00307 
  0.0053381 
  0.0060263 
  0.0041057 
  0.0051637 
  0.0055127 
  0.0006752 
 0.00034135 
  0.0010209 
  0.0056878 
  0.0025775 
  0.0049911 
  0.0013708 
  0.0061862 
  0.0058621 
  0.0048169 
  0.0034113 
  0.0017269 
  0.0062003 
  0.0039138 
  0.0060383 
  0.0046413 
  0.0029209 
  0.0020607 
  0.0063709 
  0.0062132 
  0.0044653 
 0.00011004 
  0.0063752 
  0.0024401 
  0.0037611 
  0.0055224 
  0.0056985 
  0.0032732 
 0.00052649 
 0.00087209 
  0.0053494 
  0.0058736 
  0.0012224 
  0.0063881 
  0.0042917 
  0.0051737 
  0.0060487 
  0.0015745 
  0.0027965 
  0.0065495 
  0.0062238 
  0.0049996 
  0.0019194 
  0.0036222 
  0.0065636 
   0.004117 
  0.0064002 
  0.0048246 
  0.0065761 
  0.0046502 
  0.0067363 
  0.0032131 
  0.0058834 
 0.00034777 
  0.0067395 
 0.00011452 
  0.0057091 
  0.0060599 
  0.0035061 
 0.00072557 
  0.0026491 
  0.0010755 
  0.0039796 
  0.0055344 
  0.0062349 
  0.0023632 
  0.0014295 
  0.0053585 
  0.0064111 
  0.0067512 
  0.0044772 
   0.001774 
  0.0030002 
  0.0065864 
  0.0051845 
  0.0069157 
  0.0038234 
  0.0069284 
    0.00431 
  0.0067636 
  0.0050093 
  0.0022076 
  0.0062444 
  0.0060704 
 0.00057781 
  0.0069401 
  0.0058949 
  0.0048345 
  0.0064219 
 0.00092731 
  0.0036297 
  0.0071055 
  0.0012805 
  0.0057195 
  0.0071063 
  0.0065974 
 0.00011229 
  0.0041423 
  0.0016267 
  0.0025431 
  0.0067739 
  0.0055441 
  0.0071145 
  0.0046635 
  0.0034177 
  0.0028678 
  0.0069502 
  0.0053703 
  0.0020231 
  0.0072856 
  0.0039665 
  0.0071279 
  0.0072946 
  0.0051943 
  0.0044938 
  0.0064309 
  0.0032383 
  0.0066075 
   0.006257 
   0.002369 
  0.0003924 
 0.00078445 
  0.0011316 
  0.0067839 
  0.0060789 
  0.0014815 
  0.0073047 
  0.0050185 
  0.0059041 
  0.0069598 
  0.0037962 
  0.0074795 
  0.0074755 
 0.00012345 
  0.0043224 
  0.0027063 
  0.0071377 
  0.0057313 
  0.0018399 
  0.0048506 
   0.007476 
  0.0073147 
  0.0055556 
  0.0036129 
  0.0021865 
 0.00028986 
  0.0076619 
  0.0030682 
 0.00094912 
  0.0041535 
 0.00061545 
  0.0074928 
  0.0053788 
  0.0067947 
  0.0076593 
  0.0066182 
  0.0046782 
  0.0064391 
  0.0069706 
  0.0012934 
  0.0062658 
  0.0071472 
  0.0025363 
  0.0016521 
   0.007324 
   0.007667 
   0.006093 
  0.0052067 
   0.003429 
   0.003967 
  0.0078489 
  0.0045091 
  0.0078547 
 0.00014072 
  0.0075026 
  0.0059182 
  0.0028917 
  0.0020033 
  0.0050376 
  0.0078119 
  0.0076819 
  0.0057419 
 0.00076828 
 0.00042984 
  0.0023563 
  0.0043194 
  0.0037777 
  0.0011145 
  0.0069812 
  0.0068011 
  0.0071575 
  0.0032519 
  0.0055654 
   0.006628 
  0.0073346 
  0.0078646 
  0.0080826 
  0.0080381 
  0.0014722 
   0.004865 
  0.0075113 
  0.0064547 
  0.0027118 
  0.0018266 
   0.006278 
  0.0076881 
  0.0080461 
  0.0041294 
  0.0053957 
  0.0036081 
  0.0082057 
  0.0046783 
   0.007868 
  0.0061031 
 0.00013106 
    0.00218 
  0.0081616 
  0.0030642 
 0.00096428 
 0.00063358 
  0.0052095 
  0.0059272 
  0.0080501 
   0.008324 
  0.0071653 
 0.00034046 
  0.0073445 
  0.0012941 
  0.0069913 
  0.0075216 
   0.002535 
  0.0039589 
  0.0044892 
  0.0076986 
  0.0068182 
  0.0034184 
  0.0057468 
  0.0082374 
  0.0016415 
  0.0050351 
  0.0078743 
  0.0066415 
  0.0028911 
  0.0080513 
  0.0064658 
  0.0019948 
  0.0055668 
  0.0084145 
  0.0043043 
  0.0085247 
  0.0085479 
  0.0037741 
  0.0082321 
  0.0062896 
   0.004848 
  0.0085703 
 0.00080965 
  0.0023476 
 0.00017881 
  0.0032418 
  0.0011259 
  0.0053848 
  0.0075289 
  0.0073542 
   0.006108 
  0.0077064 
  0.0084111 
 0.00045436 
  0.0071817 
  0.0078868 
  0.0014645 
  0.0027013 
  0.0070036 
  0.0080658 
  0.0041271 
  0.0046619 
  0.0035859 
  0.0018112 
  0.0059296 
  0.0085896 
  0.0087241 
  0.0082374 
  0.0068294 
   0.005205 
  0.0030563 
  0.0084158 
  0.0066527 
  0.0021657 
   0.008775 
  0.0057449 
  0.0044757 
  0.0039404 
 0.00083649 
  0.0064698 
  0.0085911 
  0.0050216 
  0.0089072 
  0.0025221 
  0.0077193 
  0.0078942 
  0.0001574 
  0.0012743 
  0.0034082 
  0.0080676 
  0.0075449 
   0.008934 
   0.007364 
  0.0055623 
  0.0062911 
  0.0087629 
  0.0082524 
  0.0016325 
   0.008954 
  0.0071904 
  0.0028684 
   0.008431 
  0.0042957 
  0.0048332 
   0.001986 
  0.0004377 
  0.0086018 
  0.0070133 
  0.0037544 
   0.006108 
  0.0089537 
  0.0053773 
  0.0068334 
  0.0087741 
  0.0091348 
  0.0032206 
  0.0023379 
  0.0059242 
  0.0011082 
  0.0091581 
 0.00076532 
  0.0046549 
  0.0066505 
  0.0041098 
  0.0089571 
  0.0080862 
  0.0079048 
  0.0082599 
  0.0051899 
  0.0026887 
  0.0092857 
  0.0077301 
   0.008436 
  0.0014575 
  0.0035762 
 0.00015932 
  0.0075492 
  0.0093208 
  0.0086182 
  0.0064706 
  0.0057441 
  0.0018054 
  0.0091505 
  0.0073778 
  0.0093313 
  0.0088142 
  0.0030358 
  0.0021506 
  0.0044648 
  0.0071978 
  0.0050109 
   0.006292 
  0.0039284 
  0.0089879 
  0.0093504 
 0.00055699 
  0.0055391 
  0.0070163 
 0.00091424 
  0.0033842 
  0.0025027 
  0.0095158 
  0.0091554 
  0.0082703 
   0.001274 
  0.0060983 
  0.0084455 
  0.0080928 
  0.0086245 
  0.0068347 
  0.0048197 
  0.0042716 
  0.0079188 
  0.0095624 
  0.0088096 
  0.0016261 
  0.0093352 
  0.0028565 
  0.0053743 
  0.0096541 
   0.003735 
  0.0077448 
  0.0089937 
 0.00018594 
   0.009693 
  0.0066531 
  0.0019746 
  0.0058993 
  0.0075627 
  0.0095229 
  0.0091654 
 0.00037809 
  0.0097047 
  0.0032105 
  0.0046272 
  0.0023205 
  0.0073815 
    0.00936 
  0.0051779 
  0.0064764 
  0.0040947 
 0.00074253 
  0.0010857 
  0.0071982 
  0.0097387 
  0.0057226 
   0.009513 
  0.0014364 
  0.0035562 
  0.0026712 
  0.0088038 
  0.0084526 
   0.008633 
  0.0098844 
  0.0082858 
  0.0089911 
  0.0070173 
  0.0081117 
  0.0091571 
  0.0062515 
   0.009704 
  0.0017888 
  0.0049844 
  0.0044413 
   0.007925 
  0.0030249 
  0.0055385 
  0.0093257 
   0.010023 
  0.0038969 
  0.0021423 
 0.00017811 
   0.009966 
   0.006832 
  0.0095179 
   0.010062 
  0.0060543 
  0.0077473 
  0.0099055 
 0.00052034 
   0.010076 
  0.0033795 
  0.0075635 
  0.0024885 
  0.0047881 
  0.0097009 
 0.00091623 
  0.0053371 
   0.006658 
  0.0042696 
  0.0012632 
  0.0089905 
  0.0088209 
  0.0091749 
  0.0073813 
  0.0086525 
  0.0098775 
  0.0016018 
  0.0058796 
  0.0028388 
  0.0037335 
  0.0084768 
  0.0093603 
   0.010252 
  0.0095062 
   0.008289 
   0.010156 
  0.0096765 
  0.0063931 
   0.001945 
  0.0071966 
  0.0081121 
  0.0051474 
  0.0046216 
   0.010074 
   0.003205 
  0.0056851 
   0.010295 
   0.010394 
  0.0022989 
  0.0062069 
  0.0040969 
  0.0079419 
  0.0098944 
  0.0070044 
 0.00036539 
 0.00018624 
   0.010434 
 0.00072846 
   0.010048 
  0.0010826 
   0.010448 
    0.00356 
  0.0077463 
  0.0026572 
   0.010316 
  0.0044542 
  0.0049771 
  0.0093563 
  0.0091887 
  0.0014268 
  0.0090147 
  0.0068245 
  0.0055084 
  0.0088319 
   0.009543 
   0.010449 
   0.007562 
  0.0017645 
  0.0086559 
   0.010189 
  0.0097097 
  0.0060465 
  0.0098325 
  0.0030097 
  0.0039143 
  0.0084797 
   0.010627 
  0.0065393 
   0.010076 
  0.0021049 
  0.0073821 
  0.0083064 
   0.010663 
  0.0053313 
    0.01056 
  0.0047987 
  0.0024604 
   0.010443 
  0.0033867 
  0.0058707 
 0.00054155 
   0.010264 
 0.00089192 
  0.0042464 
   0.010768 
  0.0081337 
  0.0063944 
 0.00017557 
   0.010808 
  0.0012427 
   0.010432 
  0.0071733 
   0.007924 
  0.0093863 
   0.010827 
  0.0037408 
  0.0097298 
  0.0095758 
  0.0028114 
  0.0091991 
   0.006924 
  0.0015931 
  0.0045895 
  0.0051415 
   0.010195 
   0.010548 
  0.0090248 
  0.0099192 
   0.010702 
   0.010063 
  0.0056924 
  0.0088355 
  0.0019455 
   0.010846 
  0.0077411 
  0.0062319 
  0.0086504 
  0.0040797 
  0.0031653 
  0.0022752 
   0.011003 
   0.010421 
  0.0067506 
   0.008483 
  0.0075567 
 0.00039553 
  0.0049395 
 0.00072896 
  0.0043644 
   0.011021 
  0.0054873 
   0.010936 
  0.0025942 
  0.0035598 
   0.010606 
  0.0010625 
  0.0060417 
  0.0082952 
   0.010805 
   0.011143 
  0.0073682 
  0.0065927 
  0.0014107 
   0.010109 
   0.010787 
  0.0095686 
  0.0097588 
 0.00019947 
  0.0099354 
   0.011182 
  0.0093889 
  0.0081068 
   0.010258 
  0.0039078 
  0.0017706 
   0.011199 
  0.0092068 
  0.0071047 
   0.002956 
  0.0047455 
   0.010562 
  0.0052932 
   0.009015 
    0.01109 
  0.0058532 
  0.0021141 
  0.0063915 
  0.0079239 
   0.011211 
  0.0088476 
   0.010713 
  0.0042465 
  0.0024617 
 0.00044763 
  0.0069443 
   0.011377 
  0.0086712 
  0.0077378 
 0.00089506 
  0.0033559 
  0.0051005 
  0.0012383 
   0.011397 
  0.0074828 
  0.0027884 
   0.005643 
   0.010949 
  0.0084817 
  0.0037121 
   0.011338 
   0.010145 
  0.0062343 
  0.0099694 
   0.011219 
   0.010302 
  0.0097629 
  0.0015976 
   0.010449 
   0.011518 
  0.0067559 
   0.011164 
  0.0095798 
  0.0030806 
  0.0093837 
   0.010723 
 0.00021724 
   0.011557 
  0.0082873 
   0.001946 
   0.004083 
  0.0060459 
   0.011572 
   0.007303 
   0.010898 
  0.0092126 
   0.004596 
  0.0054592 
  0.0022983 
   0.011421 
  0.0090213 
  0.0081019 
  0.0065967 
   0.011087 
   0.011594 
  0.0003961 
 0.00072202 
  0.0026515 
  0.0049635 
  0.0088498 
   0.011282 
  0.0010718 
  0.0071146 
   0.011752 
  0.0079129 
   0.010188 
  0.0014227 
    0.01035 
   0.010539 
  0.0063985 
  0.0029939 
   0.010715 
   0.011767 
   0.009953 
  0.0076642 
  0.0058106 
  0.0086594 
  0.0053059 
   0.010896 
  0.0036653 
  0.0097462 
  0.0017793 
  0.0033265 
  0.0044655 
  0.0069538 
   0.011894 
  0.0095807 
   0.011466 
   0.011088 
   0.011771 
  0.0093687 
  0.0021241 
  0.0084647 
   0.011583 
   0.011932 
 0.00024476 
   0.011263 
  0.0061998 
  0.0074815 
   0.011946 
  0.0040584 
  0.0024742 
 0.00052983 
  0.0092146 
   0.004827 
   0.011441 
  0.0082792 
  0.0056515 
   0.011777 
  0.0067589 
   0.011958 
  0.0012606 
 0.00091635 
  0.0028286 
  0.0051737 
  0.0090368 
   0.011619 
   0.010549 
   0.010373 
   0.010732 
  0.0015926 
  0.0073125 
   0.011944 
   0.010911 
   0.012128 
  0.0060035 
  0.0080927 
   0.011103 
    0.01011 
  0.0088636 
  0.0031774 
  0.0065588 
    0.01214 
   0.011816 
  0.0055245 
   0.011285 
   0.007851 
  0.0099419 
  0.0019463 
  0.0035238 
  0.0097381 
  0.0086509 
  0.0044237 
   0.011459 
  0.0071166 
   0.012271 
   0.002297 
   0.012154 
   0.011981 
  0.0095796 
   0.012309 
   0.011635 
 0.00031317 
 0.00042962 
  0.0038721 
 0.00073081 
  0.0076758 
  0.0063645 
   0.012323 
  0.0026524 
   0.008499 
  0.0010913 
  0.0047889 
  0.0093957 
   0.011813 
  0.0058668 
   0.001424 
   0.012181 
  0.0069236 
   0.012335 
   0.010739 
   0.010922 
  0.0030053 
  0.0042137 
   0.010558 
   0.011106 
  0.0082942 
  0.0017644 
  0.0053879 
  0.0092214 
   0.012001 
   0.003358 
   0.011292 
  0.0051266 
  0.0074775 
   0.011477 
   0.010308 
  0.0021354 
   0.012505 
  0.0061799 
  0.0090217 
   0.012358 
   0.010092 
   0.011657 
   0.004563 
   0.012183 
  0.0067268 
   0.012518 
  0.0099011 
  0.0057153 
  0.0080466 
  0.0037019 
  0.0024951 
   0.011834 
   0.009722 
   0.007289 
   0.008855 
   0.012648 
   0.012533 
   0.012369 
  0.0028533 
   0.012012 
   0.012686 
  0.0040452 
    0.00956 
   0.008654 
  0.0065391 
     0.0127 
  0.0078437 
   0.012195 
   0.004891 
  0.0060526 
  0.0032266 
   0.011112 
   0.010929 
   0.011298 
  0.0054674 
   0.012555 
   0.010746 
  0.0070942 
   0.011483 
   0.012714 
  0.0093917 
   0.011668 
  0.0043576 
  0.0084532 
   0.010419 
   0.012379 
   0.011851 
  0.0035662 
  0.0076598 
  0.0091931 
  0.0063947 
   0.010272 
   0.012883 
   0.012032 
   0.012733 
   0.010087 
   0.012563 
  0.0046659 
  0.0069017 
   0.012897 
   0.012211 
  0.0082842 
  0.0039171 
  0.0052462 
  0.0099217 
  0.0090241 
  0.0058484 
  0.0074589 
   0.012392 
   0.012912 
   0.012747 
   0.013027 
   0.013064 
  0.0097545 
     0.0108 
   0.008818 
  0.0042495 
   0.011303 
   0.011488 
   0.011121 
   0.011674 
   0.013079 
   0.012575 
  0.0080143 
  0.0067204 
  0.0095436 
    0.01186 
  0.0050038 
    0.01293 
   0.010621 
   0.012044 
  0.0072653 
   0.013094 
   0.006471 
   0.012758 
    0.01046 
   0.012227 
  0.0086543 
    0.00458 
  0.0056145 
  0.0078288 
  0.0093723 
   0.012409 
   0.013262 
   0.010287 
   0.013111 
  0.0062153 
   0.012942 
    0.01259 
  0.0091809 
  0.0070736 
   0.013277 
  0.0084534 
   0.010091 
   0.004915 
  0.0076375 
   0.012773 
   0.013125 
   0.013292 
   0.013406 
  0.0099155 
   0.011677 
   0.011489 
   0.011864 
   0.011302 
   0.012051 
   0.013443 
  0.0059824 
  0.0090044 
   0.011118 
   0.012237 
   0.012956 
   0.009709 
  0.0068393 
  0.0082747 
    0.01346 
   0.010812 
   0.012422 
  0.0053594 
   0.013308 
  0.0074415 
   0.010641 
   0.013475 
   0.012605 
  0.0088193 
   0.013139 
  0.0095509 
   0.012788 
   0.008081 
   0.010462 
  0.0066382 
   0.013491 
   0.013642 
   0.013322 
   0.005719 
    0.01297 
   0.009362 
   0.010278 
  0.0072412 
   0.013659 
  0.0086425 
   0.010078 
  0.0063336 
   0.013153 
   0.011865 
   0.012053 
   0.011675 
   0.012242 
   0.013505 
  0.0079077 
   0.011485 
   0.012429 
   0.013673 
   0.013787 
   0.011297 
   0.012615 
  0.0091835 
  0.0084531 
   0.013823 
   0.013336 
   0.011001 
  0.0060533 
  0.0098815 
     0.0128 
   0.013842 
   0.013689 
   0.010832 
   0.012984 
  0.0090018 
  0.0077181 
   0.013857 
    0.01352 
  0.0070535 
   0.013168 
   0.010675 
  0.0097404 
  0.0082754 
  0.0064296 
   0.013872 
   0.014028 
   0.013351 
   0.013703 
   0.010442 
  0.0095497 
   0.010243 
  0.0088221 
   0.012242 
   0.014041 
   0.012051 
   0.012431 
   0.011859 
    0.01262 
  0.0075373 
   0.013534 
   0.011668 
   0.012808 
  0.0080901 
   0.013886 
   0.011478 
   0.012995 
   0.014056 
   0.014173 
  0.0093663 
  0.0068175 
   0.013718 
   0.011279 
  0.0086373 
    0.01318 
   0.014219 
   0.014224 
   0.010124 
   0.011092 
   0.013365 
   0.014071 
  0.0073654 
   0.013901 
   0.009185 
  0.0079086 
    0.01424 
   0.010903 
   0.013549 
  0.0099216 
   0.008457 
  0.0071326 
   0.010709 
   0.013733 
   0.014255 
   0.014085 
   0.012429 
    0.01262 
   0.014406 
   0.012237 
    0.01281 
  0.0097374 
   0.010477 
   0.012046 
   0.012999 
  0.0090129 
   0.014425 
   0.011855 
   0.013187 
   0.013916 
   0.007738 
   0.011665 
   0.013375 
  0.0082702 
   0.014269 
   0.014439 
   0.011469 
   0.013561 
   0.014569 
  0.0095582 
     0.0141 
  0.0075263 
  0.0088233 
   0.011278 
   0.013746 
   0.014609 
   0.010375 
   0.014454 
   0.014655 
   0.014284 
   0.011089 
  0.0093832 
   0.013931 
   0.014625 
   0.008103 
  0.0086422 
   0.012808 
   0.012616 
   0.012999 
     0.0109 
   0.014115 
   0.012424 
    0.01319 
   0.014639 
   0.014468 
  0.0079023 
   0.012232 
    0.01338 
   0.014798 
  0.0099161 
   0.012041 
   0.013568 
   0.010731 
   0.010282 
  0.0091899 
    0.01481 
   0.014299 
   0.011849 
   0.013756 
  0.0084671 
   0.014653 
   0.011656 
   0.013943 
   0.014824 
  0.0097493 
   0.014484 
    0.01495 
   0.011465 
   0.014129 
   0.009009 
  0.0082697 
   0.014998 
   0.014838 
    0.01505 
   0.011277 
   0.014668 
   0.014314 
  0.0095563 
   0.015011 
   0.012995 
   0.013187 
   0.012802 
   0.013379 
    0.01261 
   0.013571 
   0.010788 
   0.010312 
   0.011093 
   0.014499 
   0.012417 
   0.013761 
  0.0088429 
   0.014853 
   0.015024 
   0.012225 
    0.01395 
   0.015186 
   0.010118 
  0.0093877 
   0.014683 
   0.012033 
  0.0086254 
   0.014139 
   0.015198 
   0.011841 
   0.014326 
   0.015038 
    0.01521 
  0.0092099 
   0.014868 
  0.0099285 
   0.015337 
   0.011651 
   0.014512 
   0.010678 
   0.015385 
   0.015224 
   0.011462 
   0.013375 
   0.014698 
   0.013181 
   0.013568 
   0.015053 
   0.015437 
   0.012988 
   0.013761 
  0.0097546 
  0.0090308 
   0.010493 
   0.012795 
   0.013952 
   0.015398 
   0.012602 
   0.014143 
   0.011268 
   0.014883 
    0.01241 
   0.014333 
   0.015238 
    0.01541 
   0.010294 
   0.015572 
  0.0095682 
   0.012218 
   0.014522 
   0.011061 
   0.015069 
   0.015585 
   0.012027 
    0.01471 
   0.015424 
  0.0093708 
   0.015597 
   0.015254 
   0.010119 
   0.011836 
   0.014897 
   0.010852 
   0.015724 
   0.013562 
   0.013756 
   0.013367 
   0.013949 
   0.013174 
   0.011645 
   0.014143 
   0.015772 
   0.015083 
   0.015611 
   0.015439 
   0.012981 
   0.014335 