# vtk DataFile Version 2.0
Steady-state stabilized finite element formulation for the 2D incopmpressible Navier Stokes equations
ASCII

DATASET UNSTRUCTURED_GRID
POINTS 8230 double
        2.2     0.40998           0 
      2.188     0.40998           0 
        2.2     0.39792           0 
     2.1818     0.39951           0 
      2.176     0.40998           0 
        2.2     0.38586           0 
     2.1878     0.38911           0 
     2.1758     0.38912           0 
     2.1698     0.39952           0 
     2.1639     0.40998           0 
        2.2      0.3738           0 
     2.1828     0.37791           0 
     2.1638     0.38913           0 
     2.1698     0.37874           0 
     2.1578     0.39953           0 
     2.1883     0.36807           0 
     2.1519     0.40998           0 
     2.1758     0.36834           0 
        2.2     0.36174           0 
     2.1578     0.37875           0 
     2.1518     0.38914           0 
     2.1828     0.35858           0 
     2.1638     0.36835           0 
     2.1458     0.39954           0 
     2.1399     0.40998           0 
     2.1697     0.35795           0 
        2.2     0.34969           0 
     2.1458     0.37876           0 
     2.1877     0.34754           0 
     2.1518     0.36836           0 
     2.1398     0.38915           0 
     2.1757     0.34755           0 
     2.1577     0.35796           0 
     2.1338     0.39954           0 
     2.1279     0.40998           0 
     2.1637     0.34756           0 
        2.2     0.33763           0 
     2.1397     0.36837           0 
     2.1338     0.37876           0 
     2.1817     0.33716           0 
     2.1457     0.35797           0 
     2.1278     0.38916           0 
     2.1697     0.33717           0 
     2.1517     0.34757           0 
     2.1218     0.39955           0 
     2.1277     0.36837           0 
     2.1877     0.32676           0 
     2.1158     0.40998           0 
     2.1577     0.33718           0 
     2.1337     0.35798           0 
     2.1218     0.37877           0 
        2.2     0.32557           0 
     2.1757     0.32677           0 
     2.1397     0.34758           0 
     2.1158     0.38917           0 
     2.1637     0.32678           0 
     2.1457     0.33719           0 
     2.1098     0.39957           0 
     2.1217     0.35799           0 
     2.1158     0.36839           0 
     2.1277     0.34759           0 
     2.1098     0.37879           0 
     2.1828      0.3159           0 
     2.1038     0.40998           0 
     2.1517     0.32679           0 
        2.2     0.31351           0 
     2.1697     0.31638           0 
     2.1337      0.3372           0 
     2.1038     0.38918           0 
     2.1577     0.31639           0 
     2.1397      0.3268           0 
     2.0978     0.39958           0 
     2.1097       0.358           0 
     2.1877     0.30597           0 
     2.1038      0.3684           0 
     2.1157     0.34761           0 
     2.1757     0.30599           0 
     2.1217     0.33721           0 
     2.0978      0.3788           0 
     2.1457      0.3164           0 
     2.0918     0.40998           0 
        2.2     0.30145           0 
     2.1637       0.306           0 
     2.1277     0.32681           0 
     2.0918     0.38919           0 
     2.1517     0.30601           0 
     2.1337     0.31641           0 
     2.0858     0.39959           0 
     2.0977     0.35802           0 
     2.1037     0.34762           0 
     2.1853     0.29521           0 
     2.1097     0.33722           0 
     2.0918     0.36841           0 
     2.1697      0.2956           0 
     2.1157     0.32683           0 
     2.0858      0.3788           0 
     2.0798     0.40998           0 
       2.14     0.30556           0 
        2.2     0.28939           0 
     2.1577     0.29561           0 
     2.1217     0.31643           0 
     2.0798     0.38919           0 
     2.0917     0.34763           0 
     2.0977     0.33723           0 
     2.0857     0.35802           0 
     2.1457     0.29562           0 
     2.0738     0.39958           0 
     2.1288     0.30469           0 
     2.1757      0.2852           0 
     2.1037     0.32683           0 
     2.0798     0.36842           0 
     2.1885     0.28286           0 
     2.1651     0.28677           0 
     2.1097     0.31644           0 
     2.0738     0.37881           0 
     2.0678     0.40998           0 
        2.2     0.27733           0 
     2.1357     0.29294           0 
     2.1157     0.30604           0 
     2.0678     0.38918           0 
     2.0857     0.33724           0 
     2.0797     0.34763           0 
      2.191      0.2743           0 
      2.179      0.2754           0 
     2.0917     0.32684           0 
     2.0737     0.35803           0 
     2.1551     0.28093           0 
     2.1672     0.27653           0 
     2.0678     0.36842           0 
     2.0977     0.31645           0 
     2.0618     0.39957           0 
     2.1262     0.29081           0 
      2.142     0.28104           0 
     2.1037     0.30605           0 
     2.0618      0.3788           0 
     2.0557     0.40998           0 
        2.2     0.26527           0 
     2.0558      0.3892           0 
     2.0737     0.33725           0 
     2.1142     0.29188           0 
     2.0797     0.32685           0 
     2.0677     0.34764           0 
     2.1841      0.2645           0 
     2.1721      0.2656           0 
     2.1312     0.27992           0 
     2.0857     0.31646           0 
     2.0618     0.35804           0 
     2.1602     0.26677           0 
      2.095     0.30423           0 
     2.0558     0.36845           0 
     2.0498     0.39958           0 
     2.1482     0.26789           0 
     2.1193       0.281           0 
     2.1005     0.29324           0 
     2.0498      0.3788           0 
     2.1363     0.26903           0 
     2.0617     0.33726           0 
     2.0677     0.32686           0 
     2.0437     0.40998           0 
     2.1891      0.2536           0 
        2.2     0.25322           0 
     2.1771     0.25472           0 
     2.0737     0.31647           0 
     2.0557     0.34766           0 
     2.0831     0.30473           0 
     2.0438     0.38919           0 
     2.1073     0.28208           0 
     2.1651     0.25586           0 
     2.0498     0.35805           0 
     2.1243      0.2701           0 
     2.1533       0.257           0 
     2.0886      0.2941           0 
     2.0438     0.36845           0 
     2.0378     0.39958           0 
     2.1412     0.25814           0 
     2.1124     0.27119           0 
     2.0378     0.37879           0 
     2.0937      0.2834           0 
     2.1294     0.25924           0 
     2.0557     0.32687           0 
     2.0497     0.33727           0 
     2.0617     0.31648           0 
     2.1821     0.24378           0 
     2.1701     0.24496           0 
     2.0677     0.30608           0 
     2.0437     0.34767           0 
     2.0317     0.40998           0 
        2.2     0.24116           0 
     2.0767      0.2946           0 
     2.1582     0.24606           0 
     2.0318     0.38918           0 
     2.0378     0.35807           0 
      2.099     0.27274           0 
     2.1175     0.26033           0 
     2.1463     0.24725           0 
     2.0823     0.28405           0 
     2.0318     0.36847           0 
     2.0259      0.3996           0 
     2.1343     0.24833           0 
     2.1046     0.26212           0 
     2.0258     0.37887           0 
     2.0437     0.32689           0 
     2.0497     0.31649           0 
     2.0874      0.2733           0 
     2.0647     0.29524           0 
      2.187     0.23285           0 
     2.1751     0.23404           0 
     2.0377     0.33728           0 
     2.0557     0.30609           0 
     2.1225     0.24945           0 
     2.1632     0.23517           0 
     2.0317     0.34768           0 
     2.0703      0.2847           0 
     2.0197     0.40998           0 
     2.1513     0.23626           0 
        2.2      0.2291           0 
     2.0198     0.38924           0 
     2.0257     0.35809           0 
     2.1102     0.25149           0 
     2.0926      0.2626           0 
     2.1393     0.23745           0 
     2.0758     0.27406           0 
     2.0198      0.3685           0 
     2.1274     0.23851           0 
     2.0527     0.29568           0 
     2.0139     0.39961           0 
     2.0377     0.31654           0 
     2.1904     0.22288           0 
     2.0436     0.30614           0 
     2.0316     0.32692           0 
     2.1801     0.22315           0 
     2.0982     0.25198           0 
     2.1682     0.22424           0 
     2.0138     0.37885           0 
     2.0257      0.3373           0 
     2.0584     0.28509           0 
     2.0811     0.26326           0 
     2.1562     0.22545           0 
     2.1155     0.23972           0 
     2.0198      0.3477           0 
     2.1443     0.22652           0 
     2.0638     0.27462           0 
     2.0076     0.40998           0 
        2.2     0.21704           0 
     2.0138      0.3581           0 
     2.0078     0.38924           0 
     2.0862     0.25245           0 
     2.1323     0.22775           0 
     2.1036     0.24075           0 
     2.0691     0.26413           0 
     2.0078     0.36849           0 
     2.0464     0.28551           0 
     2.0316     0.30618           0 
     2.0257     0.31651           0 
     2.1204     0.22879           0 
     2.1874     0.21217           0 
     2.0019     0.39965           0 
     2.1732     0.21336           0 
     2.0197     0.32692           0 
     2.0376     0.29577           0 
     2.1612     0.21455           0 
     2.0917     0.24195           0 
     2.0137     0.33732           0 
     2.0018     0.37889           0 
     2.0743     0.25334           0 
[...]
POINT_DATA 8230
SCALARS pressure double
LOOKUP_TABLE default
  0.0003185 
 0.00043822 
 0.00025737 
 0.00055839 
  0.0007202 
 0.00021827 
 0.00041678 
 0.00072888 
 0.00089349 
  0.0010553 
 0.00015022 
 0.00052096 
  0.0010683 
 0.00090159 
  0.0012348 
 0.00036139 
  0.0013997 
 0.00072956 
 0.00013924 
  0.0012451 
  0.0014129 
 0.00050706 
  0.0010735 
  0.0015801 
  0.0017471 
 0.00089279 
 0.00019072 
  0.0015908 
 0.00038323 
  0.0014198 
  0.0017594 
 0.00071061 
  0.0012438 
  0.0019274 
  0.0020959 
  0.0010626 
 0.00018884 
   0.001768 
  0.0019388 
 0.00053425 
  0.0015939 
  0.0021076 
 0.00088203 
  0.0014163 
  0.0022763 
  0.0021172 
 0.00038326 
  0.0024461 
  0.0012366 
  0.0019441 
  0.0022879 
 0.00019703 
 0.00070689 
  0.0017691 
  0.0024573 
  0.0010601 
  0.0015907 
  0.0026265 
   0.002295 
  0.0024675 
   0.002121 
  0.0026383 
 0.00050518 
  0.0027976 
   0.001413 
 0.00014207 
 0.00088813 
  0.0019458 
  0.0028081 
  0.0012429 
  0.0017648 
  0.0029781 
  0.0026467 
  0.0003712 
  0.0028188 
  0.0024732 
 0.00072456 
  0.0022992 
  0.0029898 
  0.0015896 
  0.0031505 
 0.00019507 
  0.0010696 
  0.0021249 
    0.00316 
  0.0014234 
  0.0019359 
  0.0033306 
  0.0029991 
   0.002826 
 0.00042669 
  0.0026518 
  0.0031711 
  0.0008998 
  0.0024798 
  0.0033424 
  0.0035039 
  0.0017459 
 0.00018503 
    0.00125 
  0.0023109 
  0.0035128 
  0.0031794 
  0.0030051 
  0.0033523 
  0.0015823 
  0.0036841 
  0.0020974 
 0.00067229 
  0.0028296 
  0.0035243 
 0.00034755 
  0.0010223 
  0.0026617 
   0.003696 
  0.0038584 
 0.00016567 
   0.001879 
  0.0024868 
  0.0038669 
  0.0033601 
  0.0035332 
 0.00029395 
 0.00061486 
  0.0031839 
  0.0037063 
  0.0013271 
 0.00096767 
  0.0038783 
  0.0030062 
  0.0040384 
  0.0021827 
  0.0016977 
  0.0028041 
  0.0040504 
  0.0042137 
 0.00013277 
   0.004222 
  0.0037148 
  0.0025395 
  0.0035432 
   0.003888 
 0.00048032 
 0.00083438 
  0.0020467 
  0.0033679 
  0.0040612 
  0.0011699 
  0.0031127 
  0.0042336 
  0.0043937 
  0.0015279 
  0.0023789 
   0.002936 
  0.0044056 
  0.0018953 
  0.0040698 
  0.0038961 
  0.0045702 
 0.00036183 
 0.00015317 
 0.00068172 
  0.0037239 
  0.0042437 
  0.0034529 
  0.0045779 
  0.0027391 
  0.0010304 
  0.0044172 
  0.0022342 
  0.0013825 
  0.0032906 
  0.0045903 
  0.0047496 
  0.0017438 
  0.0025906 
   0.004762 
  0.0031335 
  0.0020895 
  0.0042516 
  0.0044262 
  0.0040772 
 0.00054246 
 0.00088934 
  0.0039014 
  0.0046004 
  0.0049273 
  0.0001293 
   0.003631 
   0.001241 
  0.0049346 
  0.0047743 
  0.0029757 
  0.0024444 
  0.0015953 
  0.0034796 
  0.0049476 
  0.0051058 
  0.0019463 
  0.0028176 
  0.0051199 
   0.004609 
  0.0044349 
  0.0033273 
   0.003993 
 0.00040879 
 0.00075308 
  0.0047832 
  0.0042619 
  0.0022962 
  0.0010996 
  0.0049579 
  0.0038324 
  0.0052865 
  0.0014497 
 0.00013406 
  0.0052928 
  0.0051323 
  0.0026569 
  0.0031726 
  0.0018025 
  0.0036755 
  0.0053059 
  0.0021569 
  0.0043612 
  0.0054644 
  0.0047931 
 0.00031903 
  0.0046223 
  0.0049684 
 0.00061738 
  0.0030161 
 0.00095943 
  0.0054787 
  0.0051425 
  0.0041841 
  0.0035226 
  0.0013082 
   0.002502 
  0.0053168 
  0.0016587 
  0.0040309 
  0.0056462 
 0.00012545 
  0.0054911 
  0.0056521 
  0.0033688 
  0.0020123 
  0.0028587 
  0.0038796 
  0.0056654 
  0.0045492 
  0.0049779 
  0.0051521 
  0.0023646 
 0.00040059 
  0.0058243 
 0.00081624 
  0.0053275 
  0.0048037 
  0.0011638 
  0.0032141 
  0.0055018 
  0.0058387 
  0.0037248 
  0.0015146 
   0.002717 
  0.0056768 
  0.0044534 
  0.0018624 
  0.0060075 
  0.0058513 
  0.0042794 
  0.0001223 
  0.0060127 
  0.0022166 
  0.0035711 
  0.0030698 
  0.0053379 
   0.006026 
  0.0041056 
  0.0051635 
  0.0055125 
 0.00067517 
 0.00034134 
  0.0010208 
  0.0056876 
  0.0025774 
  0.0049909 
  0.0013707 
   0.006186 
  0.0058619 
  0.0048167 
  0.0034111 
  0.0017268 
  0.0062001 
  0.0039136 
   0.006038 
  0.0046411 
  0.0029208 
  0.0020606 
  0.0063707 
  0.0062129 
  0.0044651 
 0.00011004 
   0.006375 
    0.00244 
   0.003761 
  0.0055221 
  0.0056983 
  0.0032731 
 0.00052646 
 0.00087205 
  0.0053491 
  0.0058734 
  0.0012224 
  0.0063878 
  0.0042916 
  0.0051735 
  0.0060485 
  0.0015745 
  0.0027964 
  0.0065493 
  0.0062235 
  0.0049994 
  0.0019193 
  0.0036221 
  0.0065633 
  0.0041168 
     0.0064 
  0.0048244 
  0.0065759 
    0.00465 
  0.0067361 
   0.003213 
  0.0058832 
 0.00034775 
  0.0067392 
 0.00011453 
  0.0057088 
  0.0060596 
  0.0035059 
 0.00072554 
   0.002649 
  0.0010755 
  0.0039794 
  0.0055342 
  0.0062347 
  0.0023631 
  0.0014294 
  0.0053583 
  0.0064108 
  0.0067509 
   0.004477 
  0.0017739 
  0.0030001 
  0.0065861 
  0.0051843 
  0.0069155 
  0.0038232 
  0.0069281 
  0.0043098 
  0.0067633 
  0.0050091 
  0.0022075 
  0.0062441 
  0.0060702 
 0.00057778 
  0.0069398 
  0.0058947 
  0.0048343 
  0.0064217 
 0.00092727 
  0.0036295 
  0.0071052 
  0.0012804 
  0.0057193 
  0.0071061 
  0.0065971 
 0.00011229 
  0.0041421 
  0.0016267 
   0.002543 
  0.0067736 
  0.0055439 
  0.0071142 
  0.0046633 
  0.0034175 
  0.0028677 
  0.0069499 
  0.0053701 
   0.002023 
  0.0072853 
  0.0039663 
  0.0071277 
  0.0072943 
  0.0051941 
  0.0044936 
  0.0064307 
  0.0032382 
  0.0066072 
  0.0062568 
  0.0023689 
 0.00039238 
 0.00078441 
  0.0011316 
  0.0067837 
  0.0060787 
  0.0014815 
  0.0073044 
  0.0050183 
  0.0059038 
  0.0069596 
   0.003796 
  0.0074792 
  0.0074752 
 0.00012345 
  0.0043222 
  0.0027062 
  0.0071374 
  0.0057311 
  0.0018398 
  0.0048504 
  0.0074757 
  0.0073144 
  0.0055553 
  0.0036128 
  0.0021864 
 0.00028984 
  0.0076616 
  0.0030681 
 0.00094908 
  0.0041533 
 0.00061542 
  0.0074925 
  0.0053786 
  0.0067944 
   0.007659 
   0.006618 
  0.0046781 
  0.0064389 
  0.0069703 
  0.0012934 
  0.0062656 
  0.0071469 
  0.0025362 
   0.001652 
  0.0073237 
  0.0076667 
  0.0060927 
  0.0052064 
  0.0034288 
  0.0039669 
  0.0078486 
  0.0045089 
  0.0078544 
 0.00014072 
  0.0075023 
   0.005918 
  0.0028915 
  0.0020033 
  0.0050374 
  0.0078116 
  0.0076816 
  0.0057417 
 0.00076825 
 0.00042982 
  0.0023562 
  0.0043192 
  0.0037775 
  0.0011145 
  0.0069809 
  0.0068009 
  0.0071572 
  0.0032518 
  0.0055652 
  0.0066277 
  0.0073343 
  0.0078643 
  0.0080823 
  0.0080377 
  0.0014721 
  0.0048648 
   0.007511 
  0.0064545 
  0.0027117 
  0.0018266 
  0.0062777 
  0.0076878 
  0.0080458 
  0.0041293 
  0.0053955 
  0.0036079 
  0.0082054 
  0.0046781 
  0.0078677 
  0.0061028 
 0.00013106 
  0.0021799 
  0.0081613 
  0.0030641 
 0.00096423 
 0.00063356 
  0.0052092 
   0.005927 
  0.0080498 
  0.0083237 
   0.007165 
 0.00034044 
  0.0073442 
  0.0012941 
   0.006991 
  0.0075213 
  0.0025349 
  0.0039588 
  0.0044891 
  0.0076983 
  0.0068179 
  0.0034183 
  0.0057466 
  0.0082371 
  0.0016414 
  0.0050349 
   0.007874 
  0.0066412 
   0.002891 
   0.008051 
  0.0064656 
  0.0019947 
  0.0055666 
  0.0084141 
  0.0043041 
  0.0085243 
  0.0085476 
   0.003774 
  0.0082318 
  0.0062894 
  0.0048478 
    0.00857 
 0.00080962 
  0.0023475 
  0.0001788 
  0.0032417 
  0.0011259 
  0.0053846 
  0.0075286 
  0.0073539 
  0.0061078 
  0.0077061 
  0.0084108 
 0.00045434 
  0.0071814 
  0.0078865 
  0.0014645 
  0.0027012 
  0.0070033 
  0.0080654 
  0.0041269 
  0.0046617 
  0.0035858 
  0.0018112 
  0.0059294 
  0.0085893 
  0.0087237 
  0.0082371 
  0.0068291 
  0.0052048 
  0.0030561 
  0.0084155 
  0.0066525 
  0.0021657 
  0.0087747 
  0.0057447 
  0.0044755 
  0.0039402 
 0.00083645 
  0.0064695 
  0.0085908 
  0.0050214 
  0.0089069 
   0.002522 
   0.007719 
  0.0078939 
  0.0001574 
  0.0012742 
  0.0034081 
  0.0080673 
  0.0075446 
  0.0089337 
  0.0073637 
  0.0055621 
  0.0062908 
  0.0087625 
  0.0082521 
  0.0016324 
  0.0089536 
  0.0071901 
  0.0028683 
  0.0084306 
  0.0042956 
  0.0048331 
  0.0019859 
 0.00043768 
  0.0086015 
   0.007013 
  0.0037543 
  0.0061078 
  0.0089533 
  0.0053771 
  0.0068331 
  0.0087738 
  0.0091344 
  0.0032204 
  0.0023379 
   0.005924 
  0.0011082 
  0.0091577 
 0.00076529 
  0.0046547 
  0.0066502 
  0.0041096 
  0.0089568 
  0.0080859 
  0.0079045 
  0.0082596 
  0.0051897 
  0.0026886 
  0.0092853 
  0.0077298 
  0.0084356 
  0.0014575 
  0.0035761 
 0.00015932 
  0.0075489 
  0.0093204 
  0.0086179 
  0.0064703 
  0.0057439 
  0.0018054 
  0.0091501 
  0.0073775 
  0.0093309 
  0.0088138 
  0.0030356 
  0.0021505 
  0.0044646 
  0.0071975 
  0.0050107 
  0.0062918 
  0.0039282 
  0.0089876 
    0.00935 
 0.00055697 
  0.0055389 
  0.0070161 
 0.00091421 
  0.0033841 
  0.0025026 
  0.0095155 
   0.009155 
  0.0082699 
  0.0012739 
  0.0060981 
  0.0084452 
  0.0080925 
  0.0086241 
  0.0068344 
  0.0048195 
  0.0042714 
  0.0079185 
  0.0095621 
  0.0088093 
   0.001626 
  0.0093348 
  0.0028564 
  0.0053741 
  0.0096537 
  0.0037349 
  0.0077445 
  0.0089933 
 0.00018594 
  0.0096927 
  0.0066528 
  0.0019745 
   0.005899 
  0.0075624 
  0.0095225 
   0.009165 
 0.00037808 
  0.0097043 
  0.0032104 
   0.004627 
  0.0023204 
  0.0073812 
  0.0093596 
  0.0051777 
  0.0064761 
  0.0040946 
  0.0007425 
  0.0010857 
   0.007198 
  0.0097383 
  0.0057224 
  0.0095126 
  0.0014364 
   0.003556 
  0.0026711 
  0.0088035 
  0.0084522 
  0.0086326 
   0.009884 
  0.0082854 
  0.0089908 
   0.007017 
  0.0081114 
  0.0091568 
  0.0062513 
  0.0097036 
  0.0017888 
  0.0049842 
  0.0044411 
  0.0079246 
  0.0030248 
  0.0055383 
  0.0093253 
   0.010022 
  0.0038967 
  0.0021423 
  0.0001781 
  0.0099656 
  0.0068317 
  0.0095175 
   0.010062 
   0.006054 
   0.007747 
  0.0099051 
 0.00052032 
   0.010076 
  0.0033793 
  0.0075632 
  0.0024884 
  0.0047879 
  0.0097005 
 0.00091619 
  0.0053369 
  0.0066577 
  0.0042694 
  0.0012631 
  0.0089901 
  0.0088206 
  0.0091746 
   0.007381 
  0.0086522 
  0.0098771 
  0.0016017 
  0.0058794 
  0.0028387 
  0.0037334 
  0.0084765 
  0.0093599 
   0.010252 
  0.0095059 
  0.0082886 
   0.010156 
  0.0096761 
  0.0063928 
  0.0019449 
  0.0071963 
  0.0081118 
  0.0051472 
  0.0046214 
   0.010074 
  0.0032049 
  0.0056849 
   0.010294 
   0.010394 
  0.0022988 
  0.0062067 
  0.0040968 
  0.0079415 
   0.009894 
  0.0070042 
 0.00036537 
 0.00018624 
   0.010434 
 0.00072843 
   0.010048 
  0.0010825 
   0.010448 
  0.0035599 
   0.007746 
  0.0026571 
   0.010316 
   0.004454 
  0.0049769 
   0.009356 
  0.0091883 
  0.0014268 
  0.0090144 
  0.0068242 
  0.0055082 
  0.0088315 
  0.0095426 
   0.010448 
  0.0075617 
  0.0017644 
  0.0086556 
   0.010189 
  0.0097093 
  0.0060463 
  0.0098321 
  0.0030096 
  0.0039141 
  0.0084794 
   0.010627 
   0.006539 
   0.010075 
  0.0021048 
  0.0073818 
  0.0083061 
   0.010663 
  0.0053311 
    0.01056 
  0.0047985 
  0.0024603 
   0.010442 
  0.0033865 
  0.0058705 
 0.00054153 
   0.010264 
 0.00089188 
  0.0042463 
   0.010768 
  0.0081334 
  0.0063941 
 0.00017556 
   0.010808 
  0.0012426 
   0.010431 
  0.0071731 
  0.0079237 
  0.0093859 
   0.010826 
  0.0037406 
  0.0097295 
  0.0095754 
  0.0028113 
  0.0091988 
  0.0069237 
  0.0015931 
  0.0045893 
  0.0051413 
   0.010195 
   0.010548 
  0.0090245 
  0.0099188 
   0.010701 
   0.010063 
  0.0056922 
  0.0088351 
  0.0019454 
   0.010846 
  0.0077408 
  0.0062317 
  0.0086501 
  0.0040795 
  0.0031652 
  0.0022751 
   0.011003 
   0.010421 
  0.0067503 
  0.0084827 
  0.0075564 
 0.00039551 
  0.0049393 
 0.00072893 
  0.0043642 
   0.011021 
  0.0054871 
   0.010935 
  0.0025941 
  0.0035597 
   0.010605 
  0.0010624 
  0.0060415 
  0.0082949 
   0.010804 
   0.011142 
  0.0073679 
  0.0065924 
  0.0014107 
   0.010109 
   0.010786 
  0.0095682 
  0.0097584 
 0.00019946 
   0.009935 
   0.011182 
  0.0093885 
  0.0081065 
   0.010257 
  0.0039076 
  0.0017705 
   0.011199 
  0.0092065 
  0.0071045 
  0.0029559 
  0.0047453 
   0.010561 
   0.005293 
  0.0090146 
   0.011089 
   0.005853 
   0.002114 
  0.0063913 
  0.0079236 
   0.011211 
  0.0088472 
   0.010712 
  0.0042464 
  0.0024616 
 0.00044761 
   0.006944 
   0.011376 
  0.0086708 
  0.0077375 
 0.00089502 
  0.0033557 
  0.0051003 
  0.0012383 
   0.011396 
  0.0074825 
  0.0027883 
  0.0056428 
   0.010949 
  0.0084814 
  0.0037119 
   0.011337 
   0.010145 
   0.006234 
   0.009969 
   0.011219 
   0.010301 
  0.0097625 
  0.0015976 
   0.010449 
   0.011518 
  0.0067556 
   0.011164 
  0.0095795 
  0.0030805 
  0.0093834 
   0.010722 
 0.00021723 
   0.011556 
   0.008287 
  0.0019459 
  0.0040829 
  0.0060457 
   0.011572 
  0.0073028 
   0.010897 
  0.0092123 
  0.0045959 
   0.005459 
  0.0022982 
   0.011421 
   0.009021 
  0.0081015 
  0.0065965 
   0.011087 
   0.011594 
 0.00039608 
 0.00072199 
  0.0026514 
  0.0049633 
  0.0088495 
   0.011281 
  0.0010717 
  0.0071143 
   0.011751 
  0.0079126 
   0.010187 
  0.0014227 
    0.01035 
   0.010539 
  0.0063983 
  0.0029938 
   0.010715 
   0.011767 
  0.0099527 
  0.0076639 
  0.0058104 
   0.008659 
  0.0053057 
   0.010895 
  0.0036652 
  0.0097458 
  0.0017793 
  0.0033264 
  0.0044654 
  0.0069536 
   0.011893 
  0.0095803 
   0.011466 
   0.011087 
    0.01177 
  0.0093683 
   0.002124 
  0.0084644 
   0.011583 
   0.011932 
 0.00024475 
   0.011263 
  0.0061996 
  0.0074813 
   0.011946 
  0.0040583 
  0.0024741 
  0.0005298 
  0.0092143 
  0.0048269 
   0.011441 
  0.0082788 
  0.0056512 
   0.011776 
  0.0067586 
   0.011958 
  0.0012606 
 0.00091631 
  0.0028284 
  0.0051735 
  0.0090364 
   0.011618 
   0.010549 
   0.010373 
   0.010731 
  0.0015925 
  0.0073123 
   0.011944 
   0.010911 
   0.012127 
  0.0060033 
  0.0080923 
   0.011103 
   0.010109 
  0.0088632 
  0.0031773 
  0.0065586 
    0.01214 
   0.011816 
  0.0055243 
   0.011285 
  0.0078507 
  0.0099416 
  0.0019462 
  0.0035236 
  0.0097377 
  0.0086506 
  0.0044235 
   0.011459 
  0.0071163 
    0.01227 
  0.0022969 
   0.012153 
    0.01198 
  0.0095792 
   0.012308 
   0.011635 
 0.00031315 
  0.0004296 
   0.003872 
 0.00073078 
  0.0076755 
  0.0063642 
   0.012322 
  0.0026522 
  0.0084986 
  0.0010913 
  0.0047887 
  0.0093953 
   0.011813 
  0.0058666 
  0.0014239 
    0.01218 
  0.0069233 
   0.012334 
   0.010738 
   0.010922 
  0.0030052 
  0.0042135 
   0.010557 
   0.011106 
  0.0082939 
  0.0017643 
  0.0053877 
   0.009221 
      0.012 
  0.0033579 
   0.011292 
  0.0051264 
  0.0074772 
   0.011477 
   0.010307 
  0.0021353 
   0.012504 
  0.0061796 
  0.0090213 
   0.012357 
   0.010092 
   0.011656 
  0.0045628 
   0.012183 
  0.0067265 
   0.012517 
  0.0099007 
  0.0057151 
  0.0080463 
  0.0037017 
   0.002495 
   0.011834 
  0.0097216 
  0.0072888 
  0.0088547 
   0.012648 
   0.012532 
   0.012368 
  0.0028532 
   0.012012 
   0.012686 
  0.0040451 
  0.0095597 
  0.0086537 
  0.0065389 
     0.0127 
  0.0078434 
   0.012195 
  0.0048908 
  0.0060524 
  0.0032264 
   0.011112 
   0.010928 
   0.011297 
  0.0054672 
   0.012555 
   0.010746 
  0.0070939 
   0.011483 
   0.012714 
  0.0093913 
   0.011668 
  0.0043574 
  0.0084529 
   0.010419 
   0.012378 
    0.01185 
  0.0035661 
  0.0076595 
  0.0091927 
  0.0063944 
   0.010272 
   0.012882 
   0.012031 
   0.012733 
   0.010086 
   0.012562 
  0.0046657 
  0.0069014 
   0.012896 
   0.012211 
  0.0082838 
  0.0039169 
   0.005246 
  0.0099213 
  0.0090237 
  0.0058482 
  0.0074586 
   0.012392 
   0.012912 
   0.012747 
   0.013026 
   0.013063 
  0.0097542 
     0.0108 
  0.0088176 
  0.0042494 
   0.011302 
   0.011488 
    0.01112 
   0.011674 
   0.013079 
   0.012575 
   0.008014 
  0.0067201 
  0.0095432 
   0.011859 
  0.0050036 
    0.01293 
    0.01062 
   0.012044 
   0.007265 
   0.013094 
  0.0064707 
   0.012758 
   0.010459 
   0.012226 
   0.008654 
  0.0045799 
  0.0056143 
  0.0078285 
  0.0093719 
   0.012408 
   0.013261 
   0.010287 
    0.01311 
   0.006215 
   0.012942 
    0.01259 
  0.0091806 
  0.0070733 
   0.013277 
  0.0084531 
   0.010091 
  0.0049148 
  0.0076372 
   0.012772 
   0.013125 
   0.013292 
   0.013406 
  0.0099151 
   0.011676 
   0.011489 
   0.011864 
   0.011302 
   0.012051 
   0.013442 
  0.0059822 
   0.009004 
   0.011118 
   0.012237 
   0.012955 
  0.0097086 
   0.006839 
  0.0082743 
   0.013459 
   0.010812 
   0.012421 
  0.0053592 
   0.013308 
  0.0074412 
   0.010641 
   0.013475 
   0.012604 
   0.008819 
   0.013138 
  0.0095505 
   0.012787 
  0.0080807 
   0.010461 
  0.0066379 
    0.01349 
   0.013642 
   0.013321 
  0.0057188 
    0.01297 
  0.0093617 
   0.010278 
  0.0072409 
   0.013658 
  0.0086422 
   0.010077 
  0.0063333 
   0.013153 
   0.011864 
   0.012053 
   0.011674 
   0.012241 
   0.013505 
  0.0079074 
   0.011485 
   0.012428 
   0.013673 
   0.013786 
   0.011297 
   0.012615 
  0.0091832 
  0.0084528 
   0.013823 
   0.013336 
   0.011001 
   0.006053 
  0.0098811 
     0.0128 
   0.013842 
   0.013688 
   0.010832 
   0.012984 
  0.0090014 
  0.0077178 
   0.013856 
   0.013519 
  0.0070532 
   0.013167 
   0.010675 
    0.00974 
   0.008275 
  0.0064293 
   0.013871 
   0.014028 
   0.013351 
   0.013702 
   0.010441 
  0.0095493 
   0.010243 
  0.0088218 
   0.012241 
    0.01404 
    0.01205 
   0.012431 
   0.011859 
    0.01262 
   0.007537 
   0.013534 
   0.011668 
   0.012807 
  0.0080898 
   0.013886 
   0.011477 
   0.012994 
   0.014055 
   0.014172 
   0.009366 
  0.0068172 
   0.013717 
   0.011278 
   0.008637 
    0.01318 
   0.014218 
   0.014224 
   0.010123 
   0.011091 
   0.013364 
    0.01407 
  0.0073651 
   0.013901 
  0.0091847 
  0.0079083 
    0.01424 
   0.010903 
   0.013549 
  0.0099212 
  0.0084567 
  0.0071323 
   0.010709 
   0.013732 
   0.014254 
   0.014084 
   0.012428 
    0.01262 
   0.014405 
   0.012237 
    0.01281 
  0.0097371 
   0.010477 
   0.012046 
   0.012999 
  0.0090125 
   0.014424 
   0.011855 
   0.013187 
   0.013916 
  0.0077377 
   0.011665 
   0.013374 
  0.0082699 
   0.014269 
   0.014439 
   0.011469 
    0.01356 
   0.014568 
  0.0095579 
     0.0141 
   0.007526 
  0.0088229 
   0.011278 
   0.013746 
   0.014608 
   0.010374 
   0.014453 
   0.014655 
   0.014284 
   0.011088 
  0.0093828 
   0.013931 
   0.014624 
  0.0081027 
  0.0086418 
   0.012807 
   0.012615 
   0.012999 
     0.0109 
   0.014115 
   0.012423 
   0.013189 
   0.014638 
   0.014468 
   0.007902 
   0.012232 
   0.013379 
   0.014797 
  0.0099157 
    0.01204 
   0.013568 
   0.010731 
   0.010282 
  0.0091895 
    0.01481 
   0.014299 
   0.011848 
   0.013756 
  0.0084667 
   0.014652 
   0.011655 
   0.013942 
   0.014824 
  0.0097489 
   0.014483 
    0.01495 
   0.011465 
   0.014128 
  0.0090086 
  0.0082694 
   0.014997 
   0.014838 
    0.01505 
   0.011276 
   0.014668 
   0.014314 
   0.009556 
    0.01501 
   0.012994 
   0.013187 
   0.012802 
   0.013379 
   0.012609 
    0.01357 
   0.010787 
   0.010311 
   0.011093 
   0.014498 
   0.012417 
    0.01376 
  0.0088425 
   0.014852 
   0.015023 
   0.012225 
    0.01395 
   0.015185 
   0.010117 
  0.0093873 
   0.014683 
   0.012032 
  0.0086251 
   0.014138 
   0.015197 
   0.011841 
   0.014325 
   0.015037 
    0.01521 
  0.0092096 
   0.014868 
  0.0099281 
   0.015337 
   0.011651 
   0.014512 
   0.010677 
   0.015384 
   0.015223 
   0.011462 
   0.013374 
   0.014698 
   0.013181 
   0.013567 
   0.015053 
   0.015436 
   0.012988 
    0.01376 
  0.0097542 
  0.0090304 
   0.010492 
   0.012795 
   0.013952 
   0.015397 
   0.012602 
   0.014143 
   0.011268 
   0.014883 
   0.012409 
   0.014333 
   0.015238 
    0.01541 
   0.010294 
   0.015571 
  0.0095678 
   0.012217 
   0.014522 
    0.01106 
   0.015068 
   0.015584 
   0.012026 
   0.014709 
   0.015423 
  0.0093705 
   0.015597 
   0.015253 
   0.010119 
   0.011836 
   0.014896 
   0.010851 
   0.015724 
   0.013561 
   0.013755 
   0.013367 
   0.013949 
   0.013173 
   0.011644 
   0.014142 
   0.015771 
   0.015083 
    0.01561 
   0.015439 
    0.01298 
   0.014335 