# vtk DataFile Version 2.0
Steady-state stabilized finite element formulation for the 2D incopmpressible Navier Stokes equations
ASCII

DATASET UNSTRUCTURED_GRID
POINTS 8230 double
     2.2001     0.41007           0 
     2.1881     0.41007           0 
     2.2001     0.39801           0 
     2.1819      0.3996           0 
     2.1761     0.41007           0 
     2.2001     0.38595           0 
     2.1879      0.3892           0 
     2.1759     0.38921           0 
     2.1699     0.39961           0 
      2.164     0.41007           0 
     2.2001     0.37389           0 
     2.1829       0.378           0 
     2.1639     0.38922           0 
     2.1699     0.37883           0 
     2.1579     0.39962           0 
     2.1884     0.36816           0 
      2.152     0.41007           0 
     2.1759     0.36843           0 
     2.2001     0.36183           0 
     2.1579     0.37884           0 
     2.1519     0.38923           0 
     2.1829     0.35867           0 
     2.1639     0.36844           0 
     2.1459     0.39963           0 
       2.14     0.41007           0 
     2.1699     0.35804           0 
     2.2001     0.34978           0 
     2.1459     0.37885           0 
     2.1879     0.34763           0 
     2.1519     0.36845           0 
     2.1399     0.38924           0 
     2.1759     0.34764           0 
     2.1579     0.35805           0 
     2.1339     0.39963           0 
      2.128     0.41007           0 
     2.1639     0.34765           0 
     2.2001     0.33772           0 
     2.1399     0.36846           0 
     2.1339     0.37885           0 
     2.1819     0.33725           0 
     2.1459     0.35806           0 
     2.1279     0.38925           0 
     2.1699     0.33726           0 
     2.1519     0.34766           0 
     2.1219     0.39963           0 
     2.1279     0.36846           0 
     2.1878     0.32685           0 
      2.116     0.41006           0 
     2.1579     0.33727           0 
     2.1339     0.35807           0 
     2.1219     0.37885           0 
     2.2001     0.32566           0 
     2.1758     0.32686           0 
     2.1399     0.34767           0 
     2.1159     0.38925           0 
     2.1638     0.32687           0 
     2.1459     0.33728           0 
     2.1099     0.39965           0 
     2.1219     0.35807           0 
     2.1159     0.36847           0 
     2.1279     0.34768           0 
     2.1099     0.37887           0 
     2.1829     0.31599           0 
     2.1039     0.41006           0 
     2.1518     0.32688           0 
     2.2001      0.3136           0 
     2.1698     0.31647           0 
     2.1339     0.33729           0 
     2.1039     0.38926           0 
     2.1578     0.31648           0 
     2.1398     0.32689           0 
     2.0979     0.39966           0 
     2.1099     0.35808           0 
     2.1878     0.30606           0 
     2.1039     0.36848           0 
     2.1159     0.34769           0 
     2.1758     0.30608           0 
     2.1219     0.33729           0 
     2.0979     0.37888           0 
     2.1458     0.31649           0 
     2.0919     0.41006           0 
     2.2001     0.30154           0 
     2.1638     0.30609           0 
     2.1278      0.3269           0 
     2.0919     0.38927           0 
     2.1518      0.3061           0 
     2.1338      0.3165           0 
     2.0859     0.39967           0 
     2.0979      0.3581           0 
     2.1039      0.3477           0 
     2.1854      0.2953           0 
     2.1099      0.3373           0 
     2.0919     0.36849           0 
     2.1698     0.29569           0 
     2.1159     0.32691           0 
     2.0859     0.37888           0 
     2.0799     0.41006           0 
     2.1401     0.30565           0 
     2.2001     0.28948           0 
     2.1578      0.2957           0 
     2.1218     0.31651           0 
     2.0799     0.38927           0 
     2.0919     0.34771           0 
     2.0979     0.33731           0 
     2.0859      0.3581           0 
     2.1458     0.29571           0 
     2.0739     0.39966           0 
      2.129     0.30478           0 
     2.1758     0.28529           0 
     2.1039     0.32691           0 
     2.0799      0.3685           0 
     2.1886     0.28295           0 
     2.1652     0.28686           0 
     2.1098     0.31652           0 
     2.0739     0.37889           0 
     2.0679     0.41006           0 
     2.2001     0.27742           0 
     2.1358     0.29303           0 
     2.1158     0.30612           0 
     2.0679     0.38926           0 
     2.0859     0.33732           0 
     2.0799     0.34771           0 
     2.1911     0.27439           0 
     2.1792     0.27549           0 
     2.0919     0.32692           0 
     2.0739     0.35811           0 
     2.1552     0.28102           0 
     2.1673     0.27662           0 
     2.0679      0.3685           0 
     2.0978     0.31653           0 
     2.0619     0.39965           0 
     2.1263      0.2909           0 
     2.1422     0.28113           0 
     2.1038     0.30613           0 
     2.0619     0.37888           0 
     2.0558     0.41006           0 
     2.2001     0.26536           0 
     2.0559     0.38928           0 
     2.0739     0.33733           0 
     2.1144     0.29196           0 
     2.0799     0.32693           0 
     2.0679     0.34772           0 
     2.1842     0.26459           0 
     2.1722     0.26569           0 
     2.1314     0.28001           0 
     2.0858     0.31654           0 
     2.0619     0.35812           0 
     2.1603     0.26686           0 
     2.0952     0.30431           0 
     2.0559     0.36853           0 
     2.0499     0.39966           0 
     2.1484     0.26798           0 
     2.1194     0.28108           0 
     2.1007     0.29332           0 
     2.0499     0.37888           0 
     2.1364     0.26912           0 
     2.0619     0.33734           0 
     2.0679     0.32694           0 
     2.0438     0.41006           0 
     2.1892     0.25369           0 
     2.2001     0.25331           0 
     2.1773     0.25481           0 
     2.0738     0.31655           0 
     2.0559     0.34774           0 
     2.0832     0.30481           0 
     2.0439     0.38927           0 
     2.1075     0.28216           0 
     2.1652     0.25595           0 
     2.0499     0.35813           0 
     2.1245     0.27019           0 
     2.1534     0.25709           0 
     2.0887     0.29418           0 
     2.0439     0.36853           0 
     2.0379     0.39966           0 
     2.1414     0.25823           0 
     2.1125     0.27127           0 
     2.0379     0.37887           0 
     2.0939     0.28348           0 
     2.1295     0.25933           0 
     2.0559     0.32695           0 
     2.0499     0.33735           0 
     2.0618     0.31656           0 
     2.1822     0.24387           0 
     2.1703     0.24505           0 
     2.0678     0.30616           0 
     2.0439     0.34775           0 
     2.0318     0.41006           0 
     2.2001     0.24125           0 
     2.0768     0.29468           0 
     2.1583     0.24615           0 
     2.0319     0.38926           0 
     2.0379     0.35815           0 
     2.0992     0.27282           0 
     2.1176     0.26041           0 
     2.1464     0.24734           0 
     2.0824     0.28413           0 
     2.0319     0.36855           0 
      2.026     0.39968           0 
     2.1344     0.24842           0 
     2.1047      0.2622           0 
     2.0259     0.37895           0 
     2.0439     0.32697           0 
     2.0498     0.31657           0 
     2.0876     0.27338           0 
     2.0649     0.29532           0 
     2.1871     0.23294           0 
     2.1752     0.23413           0 
     2.0379     0.33736           0 
     2.0558     0.30617           0 
     2.1226     0.24954           0 
     2.1633     0.23526           0 
     2.0319     0.34776           0 
     2.0705     0.28478           0 
     2.0198     0.41006           0 
     2.1514     0.23635           0 
     2.2001     0.22919           0 
     2.0199     0.38932           0 
     2.0259     0.35817           0 
     2.1103     0.25157           0 
     2.0928     0.26268           0 
     2.1395     0.23754           0 
      2.076     0.27414           0 
     2.0199     0.36858           0 
     2.1276      0.2386           0 
     2.0529     0.29576           0 
      2.014     0.39969           0 
     2.0378     0.31662           0 
     2.1906     0.22297           0 
     2.0438     0.30622           0 
     2.0318       0.327           0 
     2.1802     0.22324           0 
     2.0983     0.25206           0 
     2.1683     0.22433           0 
     2.0139     0.37893           0 
     2.0259     0.33738           0 
     2.0585     0.28517           0 
     2.0812     0.26334           0 
     2.1563     0.22554           0 
     2.1156      0.2398           0 
     2.0199     0.34778           0 
     2.1444     0.22661           0 
      2.064      0.2747           0 
     2.0078     0.41006           0 
     2.2001     0.21713           0 
     2.0139     0.35818           0 
     2.0079     0.38932           0 
     2.0864     0.25253           0 
     2.1325     0.22784           0 
     2.1037     0.24083           0 
     2.0692     0.26421           0 
     2.0079     0.36857           0 
     2.0465     0.28559           0 
     2.0318     0.30626           0 
     2.0258     0.31659           0 
     2.1205     0.22887           0 
     2.1875     0.21226           0 
      2.002     0.39973           0 
     2.1733     0.21345           0 
     2.0198       0.327           0 
     2.0377     0.29585           0 
     2.1614     0.21464           0 
     2.0918     0.24203           0 
     2.0139      0.3374           0 
     2.0019     0.37897           0 
     2.0745     0.25342           0 
[...]
POINT_DATA 8230
SCALARS pressure double
LOOKUP_TABLE default
 0.00031875 
 0.00043858 
 0.00025756 
 0.00055885 
 0.00072079 
 0.00021843 
 0.00041712 
 0.00072948 
 0.00089422 
  0.0010562 
 0.00015031 
 0.00052138 
  0.0010692 
 0.00090234 
  0.0012358 
 0.00036168 
  0.0014009 
 0.00073017 
 0.00013933 
  0.0012461 
  0.0014141 
 0.00050747 
  0.0010744 
  0.0015814 
  0.0017486 
 0.00089353 
 0.00019088 
  0.0015921 
 0.00038354 
  0.0014209 
  0.0017608 
 0.00071119 
  0.0012448 
   0.001929 
  0.0020977 
  0.0010635 
 0.00018903 
  0.0017694 
  0.0019404 
 0.00053468 
  0.0015953 
  0.0021094 
 0.00088276 
  0.0014174 
  0.0022781 
   0.002119 
 0.00038357 
  0.0024481 
  0.0012377 
  0.0019458 
  0.0022898 
 0.00019722 
 0.00070747 
  0.0017706 
  0.0024593 
   0.001061 
  0.0015921 
  0.0026287 
  0.0022969 
  0.0024695 
  0.0021228 
  0.0026405 
 0.00050559 
  0.0027999 
  0.0014141 
 0.00014219 
 0.00088886 
  0.0019475 
  0.0028104 
  0.0012439 
  0.0017662 
  0.0029806 
  0.0026489 
 0.00037149 
  0.0028211 
  0.0024753 
 0.00072516 
  0.0023011 
  0.0029922 
  0.0015909 
  0.0031531 
 0.00019528 
  0.0010705 
  0.0021267 
  0.0031626 
  0.0014246 
  0.0019375 
  0.0033334 
  0.0030016 
  0.0028283 
 0.00042703 
  0.0026541 
  0.0031738 
 0.00090056 
  0.0024819 
  0.0033452 
  0.0035068 
  0.0017474 
 0.00018523 
  0.0012511 
  0.0023128 
  0.0035158 
   0.003182 
  0.0030076 
  0.0033551 
  0.0015836 
  0.0036871 
  0.0020991 
 0.00067283 
   0.002832 
  0.0035273 
 0.00034783 
  0.0010232 
   0.002664 
  0.0036991 
  0.0038616 
 0.00016582 
  0.0018806 
  0.0024889 
  0.0038701 
   0.003363 
  0.0035361 
 0.00029419 
 0.00061537 
  0.0031866 
  0.0037094 
  0.0013282 
 0.00096848 
  0.0038815 
  0.0030087 
  0.0040417 
  0.0021845 
  0.0016991 
  0.0028065 
  0.0040538 
  0.0042172 
 0.00013286 
  0.0042255 
  0.0037179 
  0.0025417 
  0.0035461 
  0.0038913 
 0.00048072 
 0.00083509 
  0.0020485 
  0.0033707 
  0.0040646 
  0.0011709 
  0.0031153 
  0.0042371 
  0.0043974 
  0.0015291 
  0.0023809 
  0.0029384 
  0.0044093 
  0.0018969 
  0.0040733 
  0.0038994 
   0.004574 
 0.00036213 
 0.00015325 
  0.0006823 
  0.0037271 
  0.0042473 
  0.0034558 
  0.0045817 
  0.0027414 
  0.0010312 
  0.0044209 
  0.0022361 
  0.0013837 
  0.0032934 
  0.0045941 
  0.0047536 
  0.0017453 
  0.0025928 
   0.004766 
  0.0031362 
  0.0020913 
  0.0042552 
  0.0044299 
  0.0040806 
 0.00054293 
  0.0008901 
  0.0039046 
  0.0046042 
  0.0049315 
 0.00012936 
  0.0036341 
   0.001242 
  0.0049388 
  0.0047783 
  0.0029782 
  0.0024465 
  0.0015966 
  0.0034825 
  0.0049518 
  0.0051101 
  0.0019479 
    0.00282 
  0.0051242 
  0.0046129 
  0.0044386 
  0.0033301 
  0.0039964 
 0.00040915 
 0.00075373 
  0.0047873 
  0.0042655 
  0.0022982 
  0.0011005 
  0.0049621 
  0.0038356 
   0.005291 
  0.0014509 
 0.00013409 
  0.0052972 
  0.0051366 
  0.0026592 
  0.0031753 
   0.001804 
  0.0036786 
  0.0053104 
  0.0021588 
  0.0043649 
   0.005469 
  0.0047971 
 0.00031931 
  0.0046262 
  0.0049726 
 0.00061791 
  0.0030186 
 0.00096026 
  0.0054833 
  0.0051468 
  0.0041876 
  0.0035256 
  0.0013093 
  0.0025041 
  0.0053212 
  0.0016601 
  0.0040343 
  0.0056509 
 0.00012543 
  0.0054957 
  0.0056569 
  0.0033716 
   0.002014 
  0.0028612 
  0.0038829 
  0.0056701 
  0.0045531 
  0.0049821 
  0.0051564 
  0.0023666 
 0.00040095 
  0.0058292 
 0.00081695 
   0.005332 
  0.0048078 
  0.0011648 
  0.0032168 
  0.0055064 
  0.0058436 
  0.0037279 
  0.0015159 
  0.0027193 
  0.0056815 
  0.0044572 
  0.0018639 
  0.0060125 
  0.0058562 
   0.004283 
 0.00012228 
  0.0060178 
  0.0022184 
  0.0035741 
  0.0030724 
  0.0053424 
  0.0060311 
   0.004109 
  0.0051679 
  0.0055172 
 0.00067575 
 0.00034162 
  0.0010217 
  0.0056924 
  0.0025795 
  0.0049951 
  0.0013719 
  0.0061912 
  0.0058668 
  0.0048207 
   0.003414 
  0.0017282 
  0.0062053 
  0.0039169 
  0.0060431 
   0.004645 
  0.0029232 
  0.0020624 
   0.006376 
  0.0062182 
  0.0044689 
 0.00011001 
  0.0063803 
  0.0024421 
  0.0037641 
  0.0055268 
  0.0057031 
  0.0032758 
 0.00052693 
 0.00087281 
  0.0053536 
  0.0058783 
  0.0012234 
  0.0063932 
  0.0042952 
  0.0051778 
  0.0060536 
  0.0015758 
  0.0027987 
  0.0065548 
  0.0062288 
  0.0050036 
  0.0019209 
  0.0036251 
  0.0065689 
  0.0041203 
  0.0064054 
  0.0048284 
  0.0065814 
  0.0046539 
  0.0067417 
  0.0032157 
  0.0058882 
 0.00034803 
  0.0067449 
  0.0001145 
  0.0057136 
  0.0060647 
  0.0035089 
 0.00072617 
  0.0026512 
  0.0010764 
  0.0039828 
  0.0055389 
    0.00624 
  0.0023652 
  0.0014306 
  0.0053628 
  0.0064162 
  0.0067566 
  0.0044808 
  0.0017755 
  0.0030026 
  0.0065917 
  0.0051887 
  0.0069213 
  0.0038265 
   0.006934 
  0.0043134 
   0.006769 
  0.0050133 
  0.0022093 
  0.0062494 
  0.0060753 
  0.0005783 
  0.0069457 
  0.0058996 
  0.0048383 
  0.0064271 
 0.00092807 
  0.0036326 
  0.0071112 
  0.0012815 
  0.0057241 
   0.007112 
  0.0066027 
 0.00011228 
  0.0041456 
   0.001628 
  0.0025452 
  0.0067793 
  0.0055485 
  0.0071202 
  0.0046672 
  0.0034204 
  0.0028701 
  0.0069558 
  0.0053746 
  0.0020247 
  0.0072914 
  0.0039697 
  0.0071337 
  0.0073004 
  0.0051984 
  0.0044974 
  0.0064361 
  0.0032409 
  0.0066128 
   0.006262 
  0.0023708 
 0.00039272 
 0.00078509 
  0.0011325 
  0.0067894 
  0.0060838 
  0.0014827 
  0.0073105 
  0.0050226 
  0.0059088 
  0.0069654 
  0.0037992 
  0.0074855 
  0.0074815 
 0.00012346 
  0.0043258 
  0.0027085 
  0.0071434 
  0.0057359 
  0.0018413 
  0.0048545 
   0.007482 
  0.0073206 
    0.00556 
  0.0036158 
  0.0021883 
 0.00029008 
  0.0076681 
  0.0030707 
 0.00094988 
  0.0041568 
 0.00061595 
  0.0074988 
  0.0053831 
  0.0068001 
  0.0076654 
  0.0066235 
   0.004682 
  0.0064443 
  0.0069762 
  0.0012945 
  0.0062708 
  0.0071529 
  0.0025383 
  0.0016534 
  0.0073299 
  0.0076731 
  0.0060979 
  0.0052108 
  0.0034317 
  0.0039702 
  0.0078552 
  0.0045127 
   0.007861 
 0.00014078 
  0.0075086 
   0.005923 
   0.002894 
  0.0020049 
  0.0050416 
  0.0078182 
  0.0076881 
  0.0057465 
 0.00076889 
 0.00043018 
  0.0023582 
  0.0043228 
  0.0037807 
  0.0011154 
  0.0069868 
  0.0068066 
  0.0071633 
  0.0032545 
  0.0055699 
  0.0066333 
  0.0073405 
  0.0078709 
  0.0080891 
  0.0080445 
  0.0014733 
  0.0048689 
  0.0075173 
  0.0064599 
  0.0027139 
  0.0018281 
   0.006283 
  0.0076943 
  0.0080526 
  0.0041327 
     0.0054 
  0.0036109 
  0.0082123 
   0.004682 
  0.0078743 
   0.006108 
 0.00013111 
  0.0021817 
  0.0081681 
  0.0030666 
 0.00096504 
 0.00063408 
  0.0052136 
  0.0059319 
  0.0080566 
  0.0083307 
  0.0071711 
 0.00034072 
  0.0073504 
  0.0012951 
  0.0069969 
  0.0075277 
   0.002537 
  0.0039621 
  0.0044928 
  0.0077048 
  0.0068237 
  0.0034211 
  0.0057514 
  0.0082441 
  0.0016428 
  0.0050392 
  0.0078807 
  0.0066468 
  0.0028934 
  0.0080578 
   0.006471 
  0.0019964 
  0.0055713 
  0.0084212 
  0.0043077 
  0.0085315 
  0.0085548 
  0.0037771 
  0.0082388 
  0.0062946 
  0.0048518 
  0.0085772 
 0.00081029 
  0.0023495 
 0.00017892 
  0.0032444 
  0.0011268 
  0.0053891 
   0.007535 
  0.0073601 
  0.0061129 
  0.0077126 
  0.0084179 
 0.00045471 
  0.0071875 
  0.0078931 
  0.0014657 
  0.0027034 
  0.0070092 
  0.0080722 
  0.0041304 
  0.0046656 
  0.0035887 
  0.0018127 
  0.0059343 
  0.0085965 
  0.0087311 
   0.008244 
  0.0068349 
  0.0052092 
  0.0030587 
  0.0084226 
  0.0066581 
  0.0021674 
  0.0087821 
  0.0057495 
  0.0044792 
  0.0039435 
 0.00083714 
   0.006475 
   0.008598 
  0.0050256 
  0.0089144 
  0.0025241 
  0.0077255 
  0.0079005 
 0.00015751 
  0.0012753 
  0.0034109 
  0.0080741 
   0.007551 
  0.0089412 
  0.0073699 
  0.0055667 
  0.0062961 
  0.0087699 
   0.008259 
  0.0016337 
  0.0089612 
  0.0071961 
  0.0028706 
  0.0084377 
  0.0042991 
  0.0048371 
  0.0019875 
 0.00043804 
  0.0086088 
  0.0070189 
  0.0037574 
  0.0061129 
  0.0089609 
  0.0053816 
  0.0068388 
  0.0087812 
  0.0091421 
  0.0032231 
  0.0023398 
  0.0059289 
  0.0011091 
  0.0091654 
 0.00076591 
  0.0046586 
  0.0066558 
   0.004113 
  0.0089643 
  0.0080927 
  0.0079112 
  0.0082665 
   0.005194 
  0.0026908 
  0.0092931 
  0.0077363 
  0.0084428 
  0.0014587 
   0.003579 
 0.00015943 
  0.0075553 
  0.0093282 
  0.0086252 
  0.0064758 
  0.0057487 
  0.0018068 
  0.0091579 
  0.0073837 
  0.0093388 
  0.0088213 
  0.0030381 
  0.0021523 
  0.0044683 
  0.0072035 
  0.0050149 
   0.006297 
  0.0039314 
  0.0089952 
  0.0093579 
 0.00055742 
  0.0055435 
  0.0070219 
 0.00091495 
  0.0033869 
  0.0025046 
  0.0095235 
  0.0091628 
  0.0082769 
   0.001275 
  0.0061032 
  0.0084523 
  0.0080993 
  0.0086314 
  0.0068401 
  0.0048235 
  0.0042749 
  0.0079252 
  0.0095701 
  0.0088167 
  0.0016273 
  0.0093427 
  0.0028587 
  0.0053785 
  0.0096618 
   0.003738 
   0.007751 
  0.0090009 
 0.00018608 
  0.0097008 
  0.0066584 
  0.0019762 
  0.0059039 
  0.0075687 
  0.0095305 
  0.0091727 
 0.00037838 
  0.0097125 
   0.003213 
  0.0046309 
  0.0023223 
  0.0073874 
  0.0093675 
   0.005182 
  0.0064815 
  0.0040979 
 0.00074309 
  0.0010866 
   0.007204 
  0.0097465 
  0.0057271 
  0.0095206 
  0.0014375 
  0.0035589 
  0.0026732 
  0.0088109 
  0.0084594 
  0.0086399 
  0.0098923 
  0.0082924 
  0.0089984 
  0.0070228 
  0.0081182 
  0.0091645 
  0.0062565 
  0.0097118 
  0.0017902 
  0.0049884 
  0.0044447 
  0.0079313 
  0.0030273 
  0.0055428 
  0.0093331 
   0.010031 
  0.0038999 
   0.002144 
 0.00017824 
   0.009974 
  0.0068374 
  0.0095256 
    0.01007 
   0.006059 
  0.0077535 
  0.0099134 
 0.00052074 
   0.010084 
  0.0033821 
  0.0075696 
  0.0024904 
  0.0047918 
  0.0097087 
 0.00091693 
  0.0053413 
  0.0066633 
   0.004273 
  0.0012642 
  0.0089977 
   0.008828 
  0.0091823 
  0.0073872 
  0.0086595 
  0.0098854 
   0.001603 
  0.0058843 
   0.002841 
  0.0037365 
  0.0084836 
  0.0093678 
   0.010261 
  0.0095139 
  0.0082956 
   0.010164 
  0.0096843 
  0.0063981 
  0.0019465 
  0.0072023 
  0.0081186 
  0.0051515 
  0.0046252 
   0.010083 
  0.0032075 
  0.0056895 
   0.010303 
   0.010403 
  0.0023006 
  0.0062118 
  0.0041001 
  0.0079482 
  0.0099023 
    0.00701 
 0.00036566 
 0.00018637 
   0.010443 
 0.00072901 
   0.010056 
  0.0010834 
   0.010457 
  0.0035628 
  0.0077524 
  0.0026593 
   0.010325 
  0.0044577 
   0.004981 
  0.0093639 
   0.009196 
  0.0014279 
   0.009022 
  0.0068299 
  0.0055128 
   0.008839 
  0.0095507 
   0.010457 
   0.007568 
  0.0017658 
  0.0086629 
   0.010197 
  0.0097175 
  0.0060513 
  0.0098404 
  0.0030121 
  0.0039173 
  0.0084865 
   0.010636 
  0.0065444 
   0.010084 
  0.0021066 
   0.007388 
   0.008313 
   0.010672 
  0.0053355 
   0.010569 
  0.0048025 
  0.0024623 
   0.010451 
  0.0033893 
  0.0058753 
 0.00054196 
   0.010273 
  0.0008926 
  0.0042497 
   0.010777 
  0.0081402 
  0.0063994 
 0.00017569 
   0.010817 
  0.0012437 
    0.01044 
   0.007179 
  0.0079303 
  0.0093938 
   0.010835 
  0.0037437 
  0.0097377 
  0.0095834 
  0.0028136 
  0.0092065 
  0.0069295 
  0.0015944 
  0.0045931 
  0.0051456 
   0.010203 
   0.010556 
   0.009032 
  0.0099272 
    0.01071 
   0.010071 
  0.0056969 
  0.0088425 
   0.001947 
   0.010855 
  0.0077473 
  0.0062368 
  0.0086573 
  0.0040828 
  0.0031677 
   0.002277 
   0.011012 
   0.010429 
  0.0067559 
  0.0084898 
  0.0075627 
 0.00039582 
  0.0049434 
 0.00072952 
  0.0043678 
    0.01103 
  0.0054916 
   0.010944 
  0.0025962 
  0.0035626 
   0.010614 
  0.0010633 
  0.0060464 
  0.0083018 
   0.010813 
   0.011152 
   0.007374 
  0.0065978 
  0.0014118 
   0.010117 
   0.010796 
  0.0095763 
  0.0097666 
  0.0001996 
  0.0099433 
   0.011191 
  0.0093964 
  0.0081132 
   0.010266 
  0.0039108 
  0.0017719 
   0.011208 
  0.0092142 
  0.0071103 
  0.0029583 
  0.0047492 
    0.01057 
  0.0052974 
  0.0090222 
   0.011098 
  0.0058578 
  0.0021157 
  0.0063965 
  0.0079302 
    0.01122 
  0.0088546 
   0.010721 
  0.0042498 
  0.0024636 
 0.00044796 
  0.0069497 
   0.011386 
  0.0086781 
  0.0077439 
 0.00089575 
  0.0033585 
  0.0051045 
  0.0012393 
   0.011406 
  0.0074887 
  0.0027905 
  0.0056474 
   0.010958 
  0.0084885 
  0.0037149 
   0.011347 
   0.010153 
  0.0062392 
  0.0099774 
   0.011228 
    0.01031 
  0.0097708 
  0.0015989 
   0.010458 
   0.011527 
  0.0067612 
   0.011173 
  0.0095875 
   0.003083 
  0.0093912 
   0.010731 
 0.00021739 
   0.011566 
  0.0082939 
  0.0019475 
  0.0040862 
  0.0060507 
   0.011581 
  0.0073088 
   0.010906 
    0.00922 
  0.0045996 
  0.0054635 
  0.0023001 
    0.01143 
  0.0090285 
  0.0081083 
  0.0066019 
   0.011096 
   0.011603 
 0.00039639 
 0.00072257 
  0.0026535 
  0.0049674 
  0.0088569 
   0.011291 
  0.0010726 
  0.0071202 
   0.011761 
  0.0079192 
   0.010196 
  0.0014238 
   0.010358 
   0.010548 
  0.0064035 
  0.0029962 
   0.010724 
   0.011776 
   0.009961 
  0.0076702 
  0.0058151 
  0.0086662 
    0.00531 
   0.010904 
  0.0036681 
  0.0097539 
  0.0017807 
  0.0033291 
   0.004469 
  0.0069593 
   0.011903 
  0.0095883 
   0.011475 
   0.011097 
    0.01178 
  0.0093761 
  0.0021258 
  0.0084714 
   0.011592 
   0.011942 
 0.00024492 
   0.011272 
  0.0062047 
  0.0074874 
   0.011956 
  0.0040616 
  0.0024761 
 0.00053023 
   0.009222 
  0.0048308 
    0.01145 
  0.0082857 
  0.0056559 
   0.011786 
  0.0067642 
   0.011968 
  0.0012616 
 0.00091705 
  0.0028307 
  0.0051777 
  0.0090439 
   0.011628 
   0.010558 
   0.010381 
    0.01074 
  0.0015938 
  0.0073183 
   0.011954 
    0.01092 
   0.012137 
  0.0060082 
   0.008099 
   0.011112 
   0.010118 
  0.0088706 
  0.0031799 
   0.006564 
    0.01215 
   0.011826 
  0.0055288 
   0.011294 
  0.0078572 
  0.0099498 
  0.0019478 
  0.0035265 
  0.0097458 
  0.0086578 
  0.0044271 
   0.011469 
  0.0071221 
   0.012281 
  0.0022988 
   0.012164 
    0.01199 
  0.0095872 
   0.012319 
   0.011644 
 0.00031339 
 0.00042994 
  0.0038751 
 0.00073136 
  0.0076818 
  0.0063694 
   0.012332 
  0.0026544 
  0.0085057 
  0.0010921 
  0.0047926 
  0.0094031 
   0.011823 
  0.0058714 
   0.001425 
   0.012191 
   0.006929 
   0.012345 
   0.010747 
   0.010931 
  0.0030077 
   0.004217 
   0.010566 
   0.011115 
  0.0083007 
  0.0017657 
  0.0053921 
  0.0092287 
    0.01201 
  0.0033606 
   0.011302 
  0.0051306 
  0.0074834 
   0.011486 
   0.010316 
  0.0021371 
   0.012515 
  0.0061847 
  0.0090288 
   0.012368 
     0.0101 
   0.011666 
  0.0045665 
   0.012193 
  0.0067321 
   0.012528 
   0.009909 
  0.0057198 
  0.0080529 
  0.0037047 
   0.002497 
   0.011843 
  0.0097297 
  0.0072948 
   0.008862 
   0.012659 
   0.012543 
   0.012379 
  0.0028555 
   0.012022 
   0.012696 
  0.0040484 
  0.0095676 
  0.0086608 
  0.0065442 
   0.012711 
  0.0078498 
   0.012205 
  0.0048948 
  0.0060573 
  0.0032291 
   0.011121 
   0.010938 
   0.011307 
  0.0054716 
   0.012565 
   0.010755 
  0.0070997 
   0.011493 
   0.012724 
  0.0093991 
   0.011678 
   0.004361 
  0.0084599 
   0.010428 
   0.012389 
    0.01186 
   0.003569 
  0.0076658 
  0.0092004 
  0.0063996 
    0.01028 
   0.012893 
   0.012041 
   0.012744 
   0.010095 
   0.012573 
  0.0046695 
  0.0069071 
   0.012907 
   0.012221 
  0.0082907 
  0.0039201 
  0.0052503 
  0.0099295 
  0.0090312 
   0.005853 
  0.0074647 
   0.012402 
   0.012923 
   0.012758 
   0.013037 
   0.013075 
  0.0097622 
   0.010809 
  0.0088249 
  0.0042528 
   0.011312 
   0.011497 
    0.01113 
   0.011683 
    0.01309 
   0.012585 
  0.0080206 
  0.0067256 
  0.0095511 
   0.011869 
  0.0050076 
   0.012941 
   0.010629 
   0.012054 
   0.007271 
   0.013105 
   0.006476 
   0.012769 
   0.010468 
   0.012237 
  0.0086611 
  0.0045836 
  0.0056188 
   0.007835 
  0.0093797 
   0.012419 
   0.013272 
   0.010296 
   0.013121 
  0.0062201 
   0.012953 
   0.012601 
  0.0091882 
  0.0070791 
   0.013288 
  0.0084601 
   0.010099 
  0.0049187 
  0.0076435 
   0.012783 
   0.013136 
   0.013303 
   0.013417 
  0.0099234 
   0.011686 
   0.011499 
   0.011874 
   0.011311 
   0.012061 
   0.013453 
   0.005987 
  0.0090115 
   0.011127 
   0.012247 
   0.012966 
  0.0097167 
  0.0068446 
  0.0082811 
   0.013471 
   0.010821 
   0.012431 
  0.0053636 
   0.013319 
  0.0074473 
    0.01065 
   0.013486 
   0.012615 
  0.0088262 
   0.013149 
  0.0095584 
   0.012798 
  0.0080874 
    0.01047 
  0.0066433 
   0.013501 
   0.013653 
   0.013333 
  0.0057234 
   0.012981 
  0.0093694 
   0.010286 
  0.0072468 
    0.01367 
  0.0086493 
   0.010086 
  0.0063385 
   0.013164 
   0.011874 
   0.012063 
   0.011684 
   0.012251 
   0.013516 
  0.0079139 
   0.011494 
   0.012439 
   0.013684 
   0.013798 
   0.011306 
   0.012625 
  0.0091907 
  0.0084598 
   0.013834 
   0.013347 
    0.01101 
   0.006058 
  0.0098893 
    0.01281 
   0.013853 
     0.0137 
   0.010841 
   0.012995 
  0.0090089 
  0.0077241 
   0.013868 
    0.01353 
   0.007059 
   0.013179 
   0.010684 
   0.009748 
  0.0082818 
  0.0064346 
   0.013883 
    0.01404 
   0.013362 
   0.013714 
    0.01045 
  0.0095572 
   0.010251 
   0.008829 
   0.012251 
   0.014052 
    0.01206 
   0.012441 
   0.011869 
    0.01263 
  0.0075432 
   0.013545 
   0.011677 
   0.012818 
  0.0080964 
   0.013898 
   0.011487 
   0.013005 
   0.014067 
   0.014184 
  0.0093737 
  0.0068228 
   0.013729 
   0.011288 
  0.0086441 
   0.013191 
    0.01423 
   0.014236 
   0.010132 
     0.0111 
   0.013375 
   0.014082 
  0.0073711 
   0.013913 
  0.0091922 
  0.0079148 
   0.014252 
   0.010912 
    0.01356 
  0.0099294 
  0.0084636 
  0.0071382 
   0.010717 
   0.013744 
   0.014266 
   0.014096 
   0.012439 
    0.01263 
   0.014417 
   0.012247 
    0.01282 
  0.0097451 
   0.010485 
   0.012056 
    0.01301 
    0.00902 
   0.014436 
   0.011865 
   0.013198 
   0.013928 
   0.007744 
   0.011674 
   0.013386 
  0.0082767 
   0.014281 
   0.014451 
   0.011478 
   0.013572 
   0.014581 
  0.0095657 
   0.014112 
  0.0075322 
  0.0088302 
   0.011287 
   0.013757 
   0.014621 
   0.010383 
   0.014465 
   0.014667 
   0.014296 
   0.011098 
  0.0093906 
   0.013942 
   0.014637 
  0.0081093 
   0.008649 
   0.012818 
   0.012626 
    0.01301 
   0.010909 
   0.014127 
   0.012434 
     0.0132 
   0.014651 
    0.01448 
  0.0079085 
   0.012242 
    0.01339 
    0.01481 
  0.0099238 
    0.01205 
   0.013579 
    0.01074 
    0.01029 
  0.0091971 
   0.014822 
   0.014311 
   0.011858 
   0.013767 
  0.0084737 
   0.014665 
   0.011665 
   0.013954 
   0.014836 
  0.0097569 
   0.014495 
   0.014962 
   0.011474 
    0.01414 
   0.009016 
  0.0082762 
    0.01501 
    0.01485 
   0.015063 
   0.011285 
    0.01468 
   0.014326 
  0.0095638 
   0.015023 
   0.013005 
   0.013198 
   0.012812 
    0.01339 
   0.012619 
   0.013581 
   0.010796 
    0.01032 
   0.011102 
   0.014511 
   0.012427 
   0.013772 
  0.0088498 
   0.014865 
   0.015036 
   0.012235 
   0.013961 
   0.015198 
   0.010126 
   0.009395 
   0.014695 
   0.012042 
  0.0086322 
    0.01415 
    0.01521 
   0.011851 
   0.014337 
    0.01505 
   0.015223 
  0.0092171 
    0.01488 
  0.0099363 
    0.01535 
    0.01166 
   0.014524 
   0.010686 
   0.015397 
   0.015236 
   0.011471 
   0.013385 
    0.01471 
   0.013192 
   0.013578 
   0.015065 
   0.015449 
   0.012998 
   0.013772 
  0.0097623 
  0.0090379 
   0.010501 
   0.012805 
   0.013963 
    0.01541 
   0.012612 
   0.014155 
   0.011277 
   0.014895 
    0.01242 
   0.014345 
   0.015251 
   0.015423 
   0.010302 
   0.015584 
  0.0095757 
   0.012228 
   0.014534 
   0.011069 
   0.015081 
   0.015597 
   0.012036 
   0.014722 
   0.015436 
  0.0093782 
    0.01561 
   0.015266 
   0.010127 
   0.011845 
   0.014909 
    0.01086 
   0.015737 
   0.013572 
   0.013766 
   0.013378 
    0.01396 
   0.013184 
   0.011654 
   0.014154 
   0.015784 
   0.015095 
   0.015623 
   0.015452 
   0.012991 
   0.014346 