# vtk DataFile Version 2.0
Steady-state stabilized finite element formulation for the 2D incopmpressible Navier Stokes equations
ASCII

DATASET UNSTRUCTURED_GRID
POINTS 8230 double
    2.2        0.41           0 
  2.188        0.41           0 
    2.2     0.39794           0 
 2.1818     0.39953           0 
  2.176        0.41           0 
    2.2     0.38588           0 
 2.1878     0.38913           0 
 2.1758     0.38914           0 
 2.1698     0.39954           0 
 2.1639        0.41           0 
    2.2     0.37382           0 
 2.1828     0.37793           0 
 2.1638     0.38915           0 
 2.1698     0.37876           0 
 2.1578     0.39955           0 
 2.1883     0.36809           0 
 2.1519        0.41           0 
 2.1758     0.36836           0 
    2.2     0.36176           0 
 2.1578     0.37877           0 
 2.1518     0.38916           0 
 2.1828      0.3586           0 
 2.1638     0.36837           0 
 2.1458     0.39956           0 
 2.1399        0.41           0 
 2.1698     0.35797           0 
    2.2     0.34971           0 
 2.1458     0.37878           0 
 2.1877     0.34756           0 
 2.1518     0.36838           0 
 2.1398     0.38917           0 
 2.1757     0.34757           0 
 2.1578     0.35798           0 
 2.1338     0.39956           0 
 2.1279        0.41           0 
 2.1637     0.34758           0 
    2.2     0.33765           0 
 2.1398     0.36839           0 
 2.1338     0.37878           0 
 2.1817     0.33718           0 
 2.1458     0.35799           0 
 2.1278     0.38918           0 
 2.1697     0.33719           0 
 2.1517     0.34759           0 
 2.1218     0.39957           0 
 2.1278     0.36839           0 
 2.1877     0.32678           0 
 2.1159        0.41           0 
 2.1577      0.3372           0 
 2.1338       0.358           0 
 2.1218     0.37879           0 
    2.2     0.32559           0 
 2.1757     0.32679           0 
 2.1397      0.3476           0 
 2.1158     0.38919           0 
 2.1637      0.3268           0 
 2.1457     0.33721           0 
 2.1098     0.39959           0 
 2.1218     0.35801           0 
 2.1158     0.36841           0 
 2.1277     0.34761           0 
 2.1098     0.37881           0 
 2.1828     0.31592           0 
 2.1038        0.41           0 
 2.1517     0.32681           0 
    2.2     0.31353           0 
 2.1697      0.3164           0 
 2.1337     0.33722           0 
 2.1038      0.3892           0 
 2.1577     0.31641           0 
 2.1397     0.32682           0 
 2.0978      0.3996           0 
 2.1098     0.35802           0 
 2.1877     0.30599           0 
 2.1038     0.36842           0 
 2.1157     0.34763           0 
 2.1757     0.30601           0 
 2.1217     0.33723           0 
 2.0978     0.37882           0 
 2.1457     0.31642           0 
 2.0918        0.41           0 
    2.2     0.30147           0 
 2.1637     0.30602           0 
 2.1277     0.32683           0 
 2.0918     0.38921           0 
 2.1517     0.30603           0 
 2.1337     0.31643           0 
 2.0858     0.39961           0 
 2.0978     0.35804           0 
 2.1037     0.34764           0 
 2.1853     0.29523           0 
 2.1097     0.33724           0 
 2.0918     0.36843           0 
 2.1697     0.29562           0 
 2.1157     0.32685           0 
 2.0858     0.37882           0 
 2.0798        0.41           0 
   2.14     0.30558           0 
    2.2     0.28941           0 
 2.1577     0.29563           0 
 2.1217     0.31645           0 
 2.0798     0.38921           0 
 2.0918     0.34765           0 
 2.0977     0.33725           0 
 2.0858     0.35804           0 
 2.1457     0.29564           0 
 2.0738      0.3996           0 
 2.1288     0.30471           0 
 2.1757     0.28522           0 
 2.1037     0.32685           0 
 2.0798     0.36844           0 
 2.1885     0.28288           0 
 2.1651     0.28679           0 
 2.1097     0.31646           0 
 2.0738     0.37883           0 
 2.0678        0.41           0 
    2.2     0.27735           0 
 2.1357     0.29296           0 
 2.1157     0.30606           0 
 2.0678      0.3892           0 
 2.0857     0.33726           0 
 2.0798     0.34765           0 
  2.191     0.27432           0 
 2.1791     0.27542           0 
 2.0917     0.32686           0 
 2.0738     0.35805           0 
 2.1551     0.28095           0 
 2.1672     0.27655           0 
 2.0678     0.36844           0 
 2.0977     0.31647           0 
 2.0618     0.39959           0 
 2.1262     0.29083           0 
  2.142     0.28106           0 
 2.1037     0.30607           0 
 2.0618     0.37882           0 
 2.0557        0.41           0 
    2.2     0.26529           0 
 2.0558     0.38922           0 
 2.0737     0.33727           0 
 2.1143      0.2919           0 
 2.0797     0.32687           0 
 2.0678     0.34766           0 
 2.1841     0.26452           0 
 2.1721     0.26562           0 
 2.1312     0.27994           0 
 2.0857     0.31648           0 
 2.0618     0.35806           0 
 2.1602     0.26679           0 
 2.0951     0.30425           0 
 2.0558     0.36847           0 
 2.0498      0.3996           0 
 2.1482     0.26791           0 
 2.1193     0.28102           0 
 2.1006     0.29326           0 
 2.0498     0.37882           0 
 2.1363     0.26905           0 
 2.0617     0.33728           0 
 2.0677     0.32688           0 
 2.0437        0.41           0 
 2.1891     0.25362           0 
    2.2     0.25324           0 
 2.1771     0.25474           0 
 2.0737     0.31649           0 
 2.0558     0.34768           0 
 2.0831     0.30475           0 
 2.0438     0.38921           0 
 2.1074      0.2821           0 
 2.1651     0.25588           0 
 2.0498     0.35807           0 
 2.1243     0.27012           0 
 2.1533     0.25702           0 
 2.0886     0.29412           0 
 2.0438     0.36847           0 
 2.0378      0.3996           0 
 2.1412     0.25816           0 
 2.1124     0.27121           0 
 2.0378     0.37881           0 
 2.0938     0.28342           0 
 2.1294     0.25926           0 
 2.0557     0.32689           0 
 2.0497     0.33729           0 
 2.0617      0.3165           0 
 2.1821      0.2438           0 
 2.1702     0.24498           0 
 2.0677      0.3061           0 
 2.0438     0.34769           0 
 2.0317        0.41           0 
    2.2     0.24118           0 
 2.0767     0.29462           0 
 2.1582     0.24608           0 
 2.0318      0.3892           0 
 2.0378     0.35809           0 
 2.0991     0.27276           0 
 2.1175     0.26035           0 
 2.1463     0.24727           0 
 2.0823     0.28407           0 
 2.0318     0.36849           0 
 2.0259     0.39962           0 
 2.1343     0.24835           0 
 2.1046     0.26214           0 
 2.0258     0.37889           0 
 2.0437     0.32691           0 
 2.0497     0.31651           0 
 2.0874     0.27332           0 
 2.0648     0.29526           0 
  2.187     0.23287           0 
 2.1751     0.23406           0 
 2.0377      0.3373           0 
 2.0557     0.30611           0 
 2.1225     0.24947           0 
 2.1632     0.23519           0 
 2.0318      0.3477           0 
 2.0704     0.28472           0 
 2.0197        0.41           0 
 2.1513     0.23628           0 
    2.2     0.22912           0 
 2.0198     0.38926           0 
 2.0257     0.35811           0 
 2.1102     0.25151           0 
 2.0926     0.26262           0 
 2.1394     0.23747           0 
 2.0758     0.27408           0 
 2.0198     0.36852           0 
 2.1275     0.23853           0 
 2.0528      0.2957           0 
 2.0139     0.39963           0 
 2.0377     0.31656           0 
 2.1904      0.2229           0 
 2.0436     0.30616           0 
 2.0317     0.32694           0 
 2.1801     0.22317           0 
 2.0982       0.252           0 
 2.1682     0.22426           0 
 2.0138     0.37887           0 
 2.0257     0.33732           0 
 2.0584     0.28511           0 
 2.0811     0.26328           0 
 2.1562     0.22547           0 
 2.1155     0.23974           0 
 2.0198     0.34772           0 
 2.1443     0.22654           0 
 2.0639     0.27464           0 
 2.0076        0.41           0 
    2.2     0.21706           0 
 2.0138     0.35812           0 
 2.0078     0.38926           0 
 2.0863     0.25247           0 
 2.1324     0.22777           0 
 2.1036     0.24077           0 
 2.0691     0.26415           0 
 2.0078     0.36851           0 
 2.0464     0.28553           0 
 2.0316      0.3062           0 
 2.0257     0.31653           0 
 2.1204     0.22881           0 
 2.1874     0.21219           0 
 2.0019     0.39967           0 
 2.1732     0.21338           0 
 2.0197     0.32694           0 
 2.0376     0.29579           0 
 2.1613     0.21457           0 
 2.0917     0.24197           0 
 2.0137     0.33734           0 
 2.0018     0.37891           0 
 2.0743     0.25336           0 
 2.1493     0.21567           0 
 2.1085     0.23007           0 
 2.0078     0.34775           0 
 2.0496     0.27501           0 
 2.1374     0.21688           0 
 1.9956        0.41           0 
 2.0018     0.35812           0 
 2.0556     0.26462           0 
    2.2       0.205           0 
 1.9958      0.3893           0 
 2.1255     0.21797           0 
 2.0794     0.24269           0 
 2.0966      0.2311           0 
 2.0197     0.30616           0 
 1.9958     0.36854           0 
 2.0616     0.25423           0 
 2.0257     0.29581           0 
 2.0137     0.31656           0 
 2.1781     0.20246           0 
 2.1901     0.20135           0 
 2.1662     0.20364           0 
 2.0077     0.32696           0 
 2.1136      0.2192           0 
 2.0316     0.28539           0 
 2.1543     0.20477           0 
 1.9899     0.39971           0 
 2.0018     0.33735           0 
 2.0376     0.27502           0 
  2.085     0.23215           0 
 2.1423     0.20594           0 
 1.9898     0.37891           0 
 2.0682     0.24327           0 
[...]
POINT_DATA 8230
SCALARS pressure double
LOOKUP_TABLE default
 0.00030342 
 0.00042259 
 0.00024662 
 0.00054326 
 0.00070142 
 0.00021204 
 0.00040497 
 0.00071399 
 0.00087506 
  0.0010342 
  0.0001463 
 0.00050859 
  0.0010512 
 0.00088732 
  0.0012144 
 0.00035089 
   0.001377 
 0.00071742 
 0.00013775 
  0.0012293 
  0.0013943 
 0.00049563 
  0.0010599 
  0.0015584 
  0.0017234 
 0.00088038 
 0.00019599 
   0.001574 
 0.00037442 
  0.0014052 
  0.0017398 
  0.0006989 
  0.0012308 
   0.001905 
  0.0020718 
  0.0010505 
 0.00019669 
   0.001753 
  0.0019216 
 0.00052336 
  0.0015807 
  0.0020878 
 0.00087047 
  0.0014043 
  0.0022538 
  0.0021023 
 0.00037558 
  0.0024221 
  0.0012255 
   0.001931 
  0.0022707 
 0.00020722 
 0.00069616 
  0.0017575 
  0.0024376 
  0.0010498 
  0.0015803 
  0.0026044 
  0.0022824 
  0.0024529 
    0.00211 
  0.0026216 
 0.00049585 
  0.0027742 
  0.0014035 
 0.00014799 
 0.00087904 
  0.0019363 
  0.0027891 
  0.0012349 
  0.0017562 
  0.0029569 
  0.0026349 
 0.00036398 
  0.0028052 
  0.0024632 
 0.00071736 
  0.0022908 
  0.0029741 
  0.0015826 
  0.0031281 
 0.00020518 
   0.001063 
  0.0021181 
  0.0031422 
  0.0014182 
  0.0019296 
  0.0033107 
  0.0029887 
  0.0028174 
 0.00041884 
  0.0026449 
  0.0031589 
 0.00089434 
  0.0024748 
  0.0033283 
  0.0034832 
  0.0017409 
 0.00019413 
  0.0012462 
  0.0023081 
  0.0034967 
  0.0031725 
      0.003 
  0.0033437 
  0.0015783 
  0.0036661 
  0.0020964 
 0.00066354 
  0.0028263 
   0.003514 
 0.00034177 
  0.0010178 
  0.0026607 
   0.003684 
  0.0038398 
  0.0001707 
   0.001878 
  0.0024877 
  0.0038529 
  0.0033573 
  0.0035285 
 0.00029013 
 0.00061027 
  0.0031828 
     0.0037 
  0.0013265 
 0.00096576 
  0.0038704 
  0.0030069 
  0.0040227 
  0.0021862 
   0.001699 
  0.0028033 
  0.0040409 
  0.0041977 
 0.00013299 
  0.0042108 
  0.0037146 
   0.002546 
  0.0035451 
  0.0038861 
 0.00047701 
 0.00083381 
  0.0020534 
  0.0033719 
  0.0040577 
  0.0011704 
   0.003121 
  0.0042286 
   0.004381 
   0.001532 
  0.0023865 
  0.0029446 
  0.0043992 
  0.0019036 
  0.0040728 
   0.003901 
  0.0045573 
 0.00036046 
 0.00015308 
 0.00068131 
  0.0037311 
   0.004245 
  0.0034623 
    0.00457 
  0.0027503 
  0.0010326 
   0.004417 
  0.0022443 
  0.0013881 
  0.0033025 
  0.0045888 
  0.0047404 
  0.0017533 
  0.0026041 
  0.0047592 
  0.0031474 
   0.002102 
    0.00426 
  0.0044327 
  0.0040877 
 0.00054302 
 0.00089266 
   0.003914 
  0.0046054 
  0.0049182 
 0.00012878 
   0.003645 
  0.0012479 
  0.0049306 
  0.0047779 
  0.0029922 
  0.0024604 
   0.001606 
  0.0034974 
  0.0049502 
  0.0051007 
  0.0019607 
  0.0028367 
  0.0051214 
  0.0046214 
  0.0044494 
  0.0033479 
  0.0040113 
 0.00040994 
 0.00075731 
  0.0047939 
   0.004279 
  0.0023144 
  0.0011076 
  0.0049671 
  0.0038539 
  0.0052817 
  0.0014616 
 0.00013422 
  0.0052932 
  0.0051404 
  0.0026783 
   0.003196 
  0.0018185 
  0.0037001 
  0.0053131 
  0.0021772 
  0.0043848 
  0.0054639 
   0.004812 
 0.00032088 
  0.0046441 
  0.0049853 
 0.00062208 
  0.0030421 
 0.00096816 
  0.0054851 
  0.0051579 
  0.0042095 
  0.0035502 
  0.0013211 
   0.002526 
  0.0053309 
   0.001676 
  0.0040598 
  0.0056464 
 0.00012644 
  0.0055043 
  0.0056577 
  0.0033993 
   0.002034 
  0.0028872 
  0.0039116 
  0.0056778 
    0.00458 
  0.0050042 
  0.0051761 
  0.0023908 
 0.00040464 
  0.0058292 
 0.00082537 
  0.0053497 
  0.0048327 
  0.0011775 
  0.0032473 
  0.0055224 
  0.0058506 
  0.0037598 
   0.001533 
  0.0027477 
  0.0056963 
  0.0044877 
  0.0018854 
  0.0060133 
  0.0058702 
  0.0043167 
 0.00012524 
   0.006024 
  0.0022443 
   0.003609 
  0.0031054 
  0.0053697 
  0.0060444 
  0.0041457 
  0.0051979 
  0.0055421 
 0.00068448 
 0.00034652 
  0.0010349 
  0.0057154 
  0.0026102 
  0.0050281 
  0.0013897 
  0.0061969 
  0.0058884 
  0.0048569 
  0.0034516 
  0.0017511 
  0.0062182 
  0.0039562 
  0.0060638 
  0.0046841 
  0.0029584 
  0.0020896 
   0.006383 
  0.0062382 
  0.0045109 
 0.00011388 
  0.0063928 
  0.0024745 
  0.0038065 
  0.0055623 
  0.0057361 
  0.0033162 
  0.0005356 
 0.00088621 
   0.005392 
  0.0059091 
  0.0012417 
  0.0064129 
    0.00434 
  0.0052192 
  0.0060826 
  0.0015992 
  0.0028362 
  0.0065671 
  0.0062566 
  0.0050481 
  0.0019495 
  0.0036699 
  0.0065885 
  0.0041676 
  0.0064325 
  0.0048759 
  0.0066082 
  0.0047043 
  0.0067556 
  0.0032601 
  0.0059298 
 0.00035645 
  0.0067645 
 0.00012083 
  0.0057581 
  0.0061039 
  0.0035559 
 0.00073964 
  0.0026904 
  0.0010948 
   0.004033 
  0.0055862 
  0.0062771 
   0.002401 
  0.0014543 
  0.0054132 
  0.0064518 
  0.0067832 
  0.0045339 
  0.0018047 
  0.0030469 
  0.0066264 
  0.0052421 
   0.006941 
  0.0038789 
   0.006961 
  0.0043689 
  0.0068033 
  0.0050696 
  0.0022459 
  0.0062976 
  0.0061262 
 0.00059135 
  0.0069799 
  0.0059533 
  0.0048973 
  0.0064731 
 0.00094641 
   0.003686 
  0.0071329 
  0.0013053 
  0.0057808 
  0.0071395 
   0.006647 
 0.00012149 
  0.0042034 
  0.0016576 
  0.0025871 
  0.0068223 
  0.0056081 
  0.0071545 
  0.0047287 
  0.0034735 
  0.0029176 
   0.006998 
  0.0054372 
   0.002061 
  0.0073195 
  0.0040293 
  0.0071759 
  0.0073358 
  0.0052637 
  0.0045611 
  0.0064939 
  0.0032944 
  0.0066683 
  0.0063226 
   0.002413 
 0.00040557 
 0.00080212 
  0.0011566 
  0.0068428 
  0.0061472 
  0.0015125 
   0.007353 
  0.0050903 
  0.0059751 
  0.0070171 
  0.0038598 
  0.0075161 
  0.0075177 
 0.00013305 
  0.0043915 
  0.0027569 
  0.0071942 
  0.0058051 
   0.001877 
  0.0049245 
  0.0075245 
   0.007371 
  0.0056319 
  0.0036769 
  0.0022302 
 0.00030261 
  0.0077055 
  0.0031258 
 0.00097257 
  0.0042239 
 0.00063188 
  0.0075494 
  0.0054574 
  0.0068656 
  0.0077095 
  0.0066915 
  0.0047539 
  0.0065149 
  0.0070394 
  0.0013235 
  0.0063442 
  0.0072143 
  0.0025866 
  0.0016879 
  0.0073901 
  0.0077241 
   0.006174 
  0.0052874 
  0.0034931 
  0.0040379 
  0.0078949 
  0.0045862 
  0.0079074 
 0.00015122 
  0.0075683 
  0.0060018 
  0.0029491 
  0.0020461 
  0.0051201 
   0.007866 
  0.0077478 
  0.0058277 
 0.00078943 
 0.00044527 
  0.0024061 
  0.0043973 
  0.0038489 
  0.0011432 
  0.0070627 
  0.0068849 
  0.0072368 
  0.0033162 
  0.0056532 
  0.0067142 
  0.0074121 
  0.0079315 
  0.0081376 
  0.0080989 
   0.001507 
  0.0049491 
  0.0075875 
  0.0065434 
  0.0027682 
  0.0018681 
   0.006369 
  0.0077633 
  0.0081142 
  0.0042076 
  0.0054855 
  0.0036794 
   0.008262 
  0.0047632 
  0.0079433 
  0.0061964 
  0.0001446 
  0.0022287 
  0.0082287 
  0.0031281 
 0.00099108 
 0.00065465 
  0.0053006 
  0.0060224 
  0.0081262 
  0.0083902 
  0.0072576 
 0.00035617 
  0.0074347 
  0.0013275 
  0.0070859 
  0.0076099 
  0.0025907 
  0.0040375 
  0.0045747 
  0.0077854 
  0.0069151 
  0.0034894 
  0.0058437 
  0.0083158 
  0.0016814 
  0.0051274 
    0.00796 
  0.0067405 
  0.0029541 
  0.0081364 
  0.0065669 
  0.0020418 
  0.0056652 
  0.0084947 
  0.0043901 
  0.0086032 
  0.0086156 
  0.0038523 
  0.0083177 
  0.0063926 
  0.0049408 
  0.0086355 
 0.00083514 
  0.0024018 
 0.00019018 
  0.0033124 
   0.001157 
  0.0054845 
  0.0076302 
  0.0074574 
  0.0062126 
  0.0078059 
  0.0084974 
 0.00047201 
  0.0072871 
  0.0079847 
  0.0015024 
  0.0027631 
   0.007111 
  0.0081626 
  0.0042128 
   0.004755 
  0.0036637 
  0.0018562 
  0.0060356 
  0.0086778 
  0.0088014 
  0.0083333 
  0.0069387 
  0.0053055 
  0.0031255 
  0.0085113 
  0.0067638 
   0.002218 
  0.0088652 
  0.0058521 
  0.0045688 
  0.0040254 
 0.00086329 
  0.0065823 
  0.0086868 
  0.0051222 
   0.008982 
  0.0025825 
  0.0078318 
  0.0080051 
 0.00017363 
  0.0013092 
  0.0034851 
  0.0081768 
  0.0076592 
  0.0090139 
  0.0074798 
  0.0056703 
  0.0064049 
  0.0088588 
  0.0083608 
   0.001675 
  0.0090413 
  0.0073082 
  0.0029362 
  0.0085384 
  0.0043888 
  0.0049341 
  0.0020359 
 0.00045653 
  0.0087084 
  0.0071327 
  0.0038388 
  0.0062227 
   0.009052 
  0.0054861 
  0.0069541 
  0.0088802 
  0.0092251 
  0.0032959 
  0.0023962 
  0.0060402 
   0.001141 
   0.009259 
 0.00079074 
  0.0047553 
  0.0067723 
  0.0042017 
  0.0090645 
  0.0082087 
  0.0080285 
  0.0083811 
  0.0052982 
  0.0027547 
  0.0093727 
  0.0078552 
  0.0085561 
  0.0014975 
  0.0036592 
  0.0001752 
  0.0076757 
  0.0094143 
  0.0087377 
  0.0065935 
  0.0058604 
  0.0018532 
  0.0092612 
  0.0075058 
  0.0094332 
  0.0089338 
  0.0031095 
  0.0022064 
  0.0045644 
   0.007327 
  0.0051198 
  0.0064154 
  0.0040196 
  0.0091076 
  0.0094642 
 0.00057803 
   0.005656 
  0.0071467 
 0.00094484 
  0.0034655 
  0.0025663 
  0.0096208 
  0.0092752 
  0.0084039 
  0.0013107 
  0.0062234 
  0.0085783 
  0.0082276 
  0.0087565 
  0.0069657 
  0.0049278 
  0.0043702 
  0.0080548 
  0.0096813 
  0.0089412 
  0.0016715 
  0.0094552 
  0.0029282 
  0.0054902 
  0.0097544 
  0.0038248 
   0.007882 
  0.0091254 
 0.00020079 
  0.0098006 
  0.0067849 
  0.0020278 
  0.0060236 
  0.0077007 
  0.0096474 
   0.009296 
 0.00039508 
  0.0098209 
  0.0032901 
   0.004734 
  0.0023816 
  0.0075205 
   0.009493 
  0.0052939 
  0.0066078 
  0.0041917 
 0.00076955 
  0.0011202 
  0.0073379 
  0.0098677 
  0.0058472 
  0.0096466 
  0.0014784 
  0.0036437 
  0.0027404 
  0.0089472 
  0.0085974 
  0.0087774 
   0.010004 
  0.0084315 
  0.0091351 
  0.0071574 
  0.0082584 
  0.0093002 
  0.0063852 
  0.0098421 
  0.0018391 
  0.0050994 
  0.0045469 
  0.0080719 
  0.0031025 
  0.0056619 
  0.0094674 
   0.010137 
  0.0039932 
  0.0022005 
 0.00019303 
   0.010097 
  0.0069727 
  0.0096623 
   0.010185 
  0.0061855 
  0.0078951 
   0.010047 
  0.0005413 
   0.010207 
  0.0034653 
  0.0077121 
  0.0025549 
  0.0049015 
  0.0098446 
 0.00094665 
  0.0054604 
  0.0067977 
   0.004372 
  0.0013025 
  0.0091455 
  0.0089764 
  0.0093305 
  0.0075302 
  0.0088085 
   0.010025 
  0.0016487 
  0.0060113 
  0.0029137 
  0.0038273 
  0.0086332 
  0.0095171 
   0.010387 
  0.0096629 
  0.0084453 
   0.010301 
  0.0098338 
   0.006535 
      0.002 
  0.0073456 
  0.0082689 
  0.0052692 
  0.0047347 
   0.010224 
  0.0032883 
  0.0058158 
   0.010436 
   0.010525 
  0.0023615 
  0.0063448 
  0.0041997 
  0.0080994 
   0.010053 
  0.0071546 
 0.00038334 
 0.00020174 
   0.010573 
 0.00075424 
    0.01021 
  0.0011183 
   0.010596 
  0.0036516 
  0.0079041 
  0.0027289 
   0.010475 
   0.004564 
  0.0050973 
  0.0095232 
  0.0093551 
  0.0014703 
  0.0091811 
  0.0069733 
   0.005639 
  0.0089982 
  0.0097111 
   0.010602 
  0.0077196 
   0.001816 
  0.0088222 
   0.010345 
  0.0098795 
  0.0061856 
       0.01 
  0.0030906 
  0.0040131 
  0.0086458 
   0.010779 
  0.0066895 
   0.010247 
  0.0021646 
  0.0075393 
  0.0084726 
   0.010827 
  0.0054601 
   0.010725 
  0.0049183 
  0.0025284 
   0.010608 
  0.0034753 
  0.0060081 
 0.00056287 
   0.010439 
 0.00092292 
  0.0043547 
   0.010916 
  0.0083003 
  0.0065404 
 0.00019044 
   0.010964 
  0.0012822 
   0.010612 
  0.0073307 
  0.0080908 
  0.0095637 
   0.010993 
  0.0038376 
  0.0099094 
  0.0097551 
  0.0028883 
  0.0093758 
  0.0070773 
  0.0016414 
   0.004706 
  0.0052686 
   0.010375 
   0.010729 
  0.0092013 
   0.010101 
   0.010878 
   0.010246 
  0.0058292 
  0.0090114 
  0.0020019 
   0.011022 
  0.0079078 
  0.0063778 
   0.008826 
  0.0041832 
  0.0032519 
  0.0023403 
   0.011174 
   0.010606 
  0.0069073 
  0.0086588 
  0.0077236 
  0.0004136 
  0.0050641 
 0.00075585 
  0.0044802 
   0.011201 
  0.0056227 
    0.01112 
  0.0026674 
   0.003654 
   0.010796 
  0.0010979 
  0.0061865 
  0.0084703 
    0.01099 
   0.011309 
  0.0075337 
  0.0067465 
  0.0014551 
   0.010301 
   0.010981 
  0.0097563 
  0.0099493 
 0.00021372 
   0.010127 
   0.011357 
  0.0095758 
  0.0082821 
   0.010452 
  0.0040107 
  0.0018241 
   0.011384 
  0.0093932 
  0.0072682 
  0.0030376 
  0.0048668 
   0.010759 
   0.005426 
  0.0092004 
   0.011287 
  0.0059944 
  0.0021763 
  0.0065444 
  0.0080987 
   0.011405 
  0.0090325 
   0.010914 
    0.00436 
  0.0025322 
  0.0004674 
  0.0071088 
   0.011567 
   0.008856 
  0.0079129 
 0.00092666 
  0.0034495 
  0.0052293 
  0.0012788 
   0.011596 
  0.0076546 
  0.0028671 
  0.0057841 
   0.011153 
  0.0086658 
  0.0038146 
   0.011544 
   0.010348 
  0.0063868 
   0.010171 
   0.011427 
   0.010507 
  0.0099602 
  0.0016479 
   0.010655 
   0.011704 
  0.0069174 
   0.011379 
  0.0097772 
  0.0031683 
  0.0095791 
   0.010932 
 0.00023136 
   0.011752 
  0.0084709 
   0.002005 
  0.0041937 
  0.0061948 
   0.011777 
  0.0074748 
   0.011111 
   0.009407 
   0.004718 
  0.0055972 
  0.0023659 
   0.011635 
  0.0092148 
  0.0082848 
  0.0067571 
   0.011304 
   0.011808 
 0.00041463 
  0.0007499 
  0.0027275 
   0.005092 
   0.009043 
   0.011505 
   0.001109 
  0.0072863 
   0.011962 
  0.0080952 
   0.010399 
  0.0014693 
   0.010563 
   0.010754 
  0.0065576 
  0.0030776 
   0.010932 
   0.011987 
    0.01016 
  0.0078441 
  0.0059573 
  0.0088504 
  0.0054415 
   0.011116 
  0.0037673 
  0.0099527 
  0.0018356 
  0.0034199 
  0.0045839 
  0.0071225 
   0.012102 
  0.0097857 
   0.011691 
   0.011312 
   0.011997 
  0.0095712 
  0.0021889 
   0.008654 
   0.011808 
   0.012149 
  0.0002607 
   0.011492 
  0.0063562 
  0.0076609 
   0.012173 
  0.0041682 
  0.0025475 
 0.00055285 
  0.0094174 
  0.0049552 
   0.011674 
  0.0084671 
  0.0057972 
    0.01201 
  0.0069257 
   0.012193 
  0.0013043 
 0.00095071 
  0.0029103 
  0.0053091 
  0.0092397 
   0.011857 
   0.010771 
   0.010593 
   0.010956 
  0.0016449 
  0.0074905 
   0.012186 
    0.01114 
   0.012361 
  0.0061577 
   0.008279 
   0.011335 
   0.010325 
  0.0090656 
  0.0032676 
  0.0067234 
   0.012382 
   0.012062 
  0.0056666 
   0.011522 
  0.0080365 
   0.010157 
   0.002008 
  0.0036239 
  0.0099513 
  0.0088524 
   0.004543 
   0.011701 
  0.0072918 
   0.012501 
  0.0023673 
   0.012404 
   0.012231 
  0.0097905 
   0.012549 
   0.011881 
 0.00033265 
 0.00045105 
  0.0039801 
 0.00076086 
  0.0078616 
  0.0065264 
   0.012572 
  0.0027312 
  0.0086996 
  0.0011315 
  0.0049174 
  0.0096057 
   0.012065 
  0.0060191 
  0.0014727 
   0.012441 
  0.0070965 
   0.012593 
    0.01097 
   0.011157 
  0.0030929 
    0.00433 
   0.010787 
   0.011345 
  0.0084918 
  0.0018219 
  0.0055299 
  0.0094312 
    0.01226 
   0.003455 
   0.011535 
  0.0052636 
  0.0076617 
   0.011725 
   0.010532 
  0.0022024 
   0.012762 
  0.0063395 
    0.00923 
   0.012625 
   0.010315 
    0.01191 
   0.004689 
   0.012449 
  0.0068973 
   0.012784 
   0.010123 
  0.0058651 
  0.0082404 
  0.0038071 
  0.0025708 
   0.012093 
  0.0099411 
  0.0074705 
  0.0090626 
   0.012903 
   0.012807 
   0.012643 
  0.0029378 
   0.012278 
   0.012951 
   0.004159 
  0.0097777 
  0.0088597 
  0.0067075 
   0.012975 
  0.0080367 
   0.012467 
  0.0050255 
  0.0062101 
  0.0033209 
   0.011356 
   0.011169 
   0.011546 
  0.0056143 
   0.012838 
   0.010983 
  0.0072734 
   0.011736 
   0.012997 
  0.0096073 
   0.011926 
  0.0044797 
  0.0086569 
   0.010653 
   0.012659 
   0.012115 
  0.0036689 
  0.0078493 
  0.0094083 
  0.0065597 
   0.010502 
   0.013165 
   0.012302 
   0.013024 
   0.010315 
   0.012851 
  0.0047967 
  0.0070783 
   0.013189 
   0.012489 
  0.0084861 
  0.0040284 
  0.0053899 
   0.010148 
  0.0092366 
  0.0060045 
  0.0076465 
   0.012678 
   0.013212 
   0.013045 
   0.013308 
   0.013355 
  0.0099804 
   0.011041 
  0.0090289 
  0.0043696 
   0.011555 
   0.011745 
   0.011369 
   0.011936 
   0.013381 
   0.012869 
  0.0082138 
  0.0068952 
  0.0097682 
   0.012128 
  0.0051432 
   0.013237 
   0.010864 
   0.012319 
  0.0074504 
   0.013404 
  0.0066399 
   0.013061 
   0.010697 
   0.012509 
  0.0088635 
   0.004709 
  0.0057665 
  0.0080244 
  0.0095962 
   0.012698 
   0.013572 
   0.010523 
   0.013428 
  0.0063794 
   0.013255 
   0.012888 
  0.0094021 
   0.007256 
   0.013597 
  0.0086608 
   0.010327 
  0.0050524 
  0.0078304 
    0.01308 
   0.013448 
   0.013619 
   0.013715 
   0.010146 
   0.011942 
    0.01175 
   0.012135 
   0.011558 
   0.012328 
   0.013761 
  0.0061427 
   0.009224 
   0.011369 
   0.012521 
   0.013272 
  0.0099401 
  0.0070188 
   0.008481 
   0.013789 
   0.011061 
   0.012713 
  0.0055068 
   0.013642 
  0.0076317 
   0.010886 
   0.013813 
   0.012905 
  0.0090363 
   0.013466 
  0.0097798 
   0.013097 
  0.0082849 
   0.010704 
  0.0068141 
   0.013835 
   0.013982 
    0.01366 
  0.0058741 
    0.01329 
  0.0095891 
   0.010522 
  0.0074284 
   0.014008 
  0.0088573 
   0.010316 
  0.0065037 
   0.013483 
   0.012138 
   0.012332 
   0.011943 
   0.012527 
   0.013855 
  0.0081092 
   0.011749 
   0.012721 
    0.01403 
   0.014125 
   0.011557 
   0.012916 
  0.0094089 
  0.0086658 
   0.014172 
   0.013677 
   0.011257 
   0.006216 
    0.01012 
    0.01311 
   0.014203 
    0.01405 
   0.011084 
   0.013304 
  0.0092245 
  0.0079168 
   0.014225 
   0.013872 
  0.0072387 
   0.013498 
   0.010924 
  0.0099783 
  0.0084854 
  0.0066024 
   0.014246 
     0.0144 
   0.013693 
   0.014068 
   0.010689 
   0.009784 
   0.010485 
   0.009043 
   0.012528 
   0.014421 
   0.012331 
   0.012724 
   0.012135 
    0.01292 
  0.0077335 
   0.013888 
    0.01194 
   0.013116 
  0.0082974 
   0.014265 
   0.011746 
   0.013312 
   0.014443 
   0.014544 
  0.0095983 
  0.0069986 
   0.014084 
   0.011546 
  0.0088556 
   0.013508 
   0.014602 
   0.014617 
   0.010368 
   0.011356 
   0.013705 
   0.014462 
  0.0075591 
   0.014281 
  0.0094142 
  0.0081133 
   0.014641 
   0.011165 
   0.013901 
   0.010165 
  0.0086728 
   0.007321 
   0.010968 
   0.014098 
   0.014661 
   0.014479 
   0.012722 
   0.012919 
    0.01481 
   0.012525 
   0.013117 
  0.0099765 
    0.01073 
   0.012329 
   0.013315 
  0.0092401 
   0.014839 
   0.012134 
   0.013513 
   0.014295 
  0.0079401 
    0.01194 
   0.013711 
  0.0084832 
   0.014678 
    0.01486 
   0.011742 
   0.013909 
   0.014977 
  0.0097963 
   0.014494 
  0.0077244 
  0.0090476 
   0.011548 
   0.014107 
   0.015037 
   0.010629 
   0.014878 
   0.015077 
   0.014693 
   0.011356 
  0.0096183 
   0.014306 
    0.01506 
  0.0083135 
  0.0088641 
   0.013113 
   0.012915 
   0.013312 
   0.011166 
   0.014506 
   0.012717 
   0.013512 
   0.015078 
   0.014893 
  0.0081089 
   0.012521 
   0.013712 
    0.01524 
   0.010163 
   0.012326 
   0.013911 
   0.010992 
   0.010537 
  0.0094228 
    0.01526 
   0.014705 
    0.01213 
   0.014112 
  0.0086861 
   0.015094 
   0.011934 
   0.014312 
    0.01528 
  0.0099939 
   0.014906 
   0.015394 
   0.011741 
   0.014513 
   0.009239 
  0.0084849 
   0.015463 
   0.015296 
    0.01551 
    0.01155 
   0.015108 
   0.014714 
  0.0097978 
   0.015483 
   0.013306 
   0.013506 
   0.013108 
   0.013707 
    0.01291 
   0.013908 
   0.011052 
   0.010567 
   0.011365 
   0.014916 
   0.012713 
    0.01411 
  0.0090705 
    0.01531 
   0.015499 
   0.012517 
   0.014312 
   0.015666 
   0.010369 
  0.0096271 
   0.015118 
   0.012321 
  0.0088487 
   0.014514 
   0.015686 
   0.012127 
   0.014717 
   0.015513 
   0.015703 
  0.0094465 
   0.015321 
   0.010179 
    0.01582 
   0.011934 
    0.01492 
   0.010944 
   0.015889 
   0.015718 
   0.011742 
   0.013699 
   0.015124 
   0.013499 
   0.013901 
   0.015525 
   0.015937 
   0.013299 
   0.014103 
   0.010003 
  0.0092641 
   0.010756 
   0.013101 
   0.014306 
   0.015908 
   0.012904 
    0.01451 
   0.011544 
   0.015328 
   0.012708 
   0.014714 
    0.01573 
   0.015924 
   0.010553 
   0.016092 
  0.0098136 
   0.012513 
   0.014919 
   0.011334 
   0.015533 
   0.016113 
   0.012318 
   0.015124 
   0.015936 
  0.0096119 
    0.01613 
   0.015739 
   0.010376 
   0.012125 
    0.01533 
   0.011123 
   0.016249 
   0.013891 
   0.014093 
    0.01369 
   0.014296 
   0.013491 
   0.011931 
   0.014501 
   0.016318 
   0.015536 
   0.016143 
   0.015945 
   0.013293 
   0.014706 