# vtk DataFile Version 2.0
Steady-state stabilized finite element formulation for the 2D incopmpressible Navier Stokes equations
ASCII

DATASET UNSTRUCTURED_GRID
POINTS 8230 double
   2.1963     0.40771           0 
   2.1843     0.40772           0 
   2.1963     0.39565           0 
   2.1781     0.39726           0 
   2.1723     0.40773           0 
   2.1963     0.38359           0 
   2.1841     0.38685           0 
   2.1721     0.38687           0 
   2.1661     0.39728           0 
   2.1602     0.40775           0 
   2.1963     0.37153           0 
   2.1791     0.37566           0 
   2.1601      0.3869           0 
    2.166      0.3765           0 
   2.1541     0.39731           0 
   2.1845     0.36581           0 
   2.1482     0.40776           0 
    2.172     0.36609           0 
   2.1963     0.35947           0 
   2.1541     0.37653           0 
   2.1481     0.38692           0 
   2.1791     0.35633           0 
     2.16     0.36612           0 
   2.1421     0.39733           0 
   2.1362     0.40778           0 
    2.166     0.35571           0 
   2.1962     0.34742           0 
   2.1421     0.37655           0 
    2.184     0.34528           0 
    2.148     0.36614           0 
   2.1361     0.38695           0 
    2.172      0.3453           0 
    2.154     0.35574           0 
   2.1301     0.39734           0 
   2.1242     0.40779           0 
     2.16     0.34533           0 
   2.1962     0.33536           0 
    2.136     0.36617           0 
     2.13     0.37656           0 
    2.178     0.33491           0 
    2.142     0.35576           0 
   2.1241     0.38697           0 
    2.166     0.33493           0 
    2.148     0.34535           0 
   2.1181     0.39737           0 
    2.124     0.36618           0 
   2.1839      0.3245           0 
   2.1122      0.4078           0 
    2.154     0.33496           0 
     2.13     0.35578           0 
   2.1181     0.37659           0 
   2.1962      0.3233           0 
   2.1719     0.32452           0 
    2.136     0.34538           0 
   2.1121     0.38699           0 
   2.1599     0.32455           0 
    2.142     0.33498           0 
   2.1061      0.3974           0 
    2.118     0.35581           0 
    2.112     0.36621           0 
    2.124      0.3454           0 
   2.1061     0.37662           0 
    2.179     0.31365           0 
   2.1001     0.40782           0 
   2.1479     0.32457           0 
   2.1962     0.31124           0 
   2.1659     0.31414           0 
     2.13       0.335           0 
   2.1001     0.38702           0 
   2.1539     0.31417           0 
   2.1359      0.3246           0 
   2.0941     0.39742           0 
    2.106     0.35583           0 
   2.1839     0.30371           0 
      2.1     0.36624           0 
    2.112     0.34543           0 
   2.1719     0.30374           0 
    2.118     0.33503           0 
   2.0941     0.37664           0 
   2.1419     0.31419           0 
   2.0881     0.40783           0 
   2.1962     0.29918           0 
   2.1599     0.30377           0 
   2.1239     0.32462           0 
   2.0881     0.38704           0 
   2.1479     0.30379           0 
   2.1299     0.31421           0 
   2.0821     0.39745           0 
    2.094     0.35586           0 
      2.1     0.34546           0 
   2.1815     0.29295           0 
    2.106     0.33505           0 
    2.088     0.36626           0 
   2.1659     0.29336           0 
    2.112     0.32465           0 
   2.0821     0.37666           0 
   2.0761     0.40784           0 
   2.1362     0.30336           0 
   2.1962     0.28712           0 
   2.1539     0.29339           0 
   2.1179     0.31425           0 
   2.0761     0.38705           0 
    2.088     0.34548           0 
    2.094     0.33507           0 
    2.082     0.35588           0 
   2.1419     0.29341           0 
   2.0701     0.39745           0 
    2.125      0.3025           0 
   2.1719     0.28295           0 
      2.1     0.32467           0 
    2.076     0.36628           0 
   2.1847      0.2806           0 
   2.1613     0.28454           0 
   2.1059     0.31427           0 
   2.0701     0.37668           0 
   2.0641     0.40786           0 
   2.1962     0.27506           0 
   2.1319     0.29074           0 
   2.1119     0.30386           0 
   2.0641     0.38706           0 
    2.082      0.3351           0 
    2.076     0.34549           0 
   2.1872     0.27204           0 
   2.1752     0.27315           0 
    2.088     0.32469           0 
     2.07      0.3559           0 
   2.1513     0.27871           0 
   2.1633     0.27429           0 
   2.0641      0.3663           0 
   2.0939     0.31429           0 
   2.0581     0.39745           0 
   2.1224     0.28862           0 
   2.1382     0.27883           0 
   2.0999     0.30389           0 
   2.0581     0.37668           0 
   2.0521     0.40787           0 
   2.1961       0.263           0 
   2.0521     0.38709           0 
     2.07     0.33512           0 
   2.1104      0.2897           0 
    2.076     0.32471           0 
    2.064     0.34552           0 
   2.1802     0.26225           0 
   2.1683     0.26336           0 
   2.1274     0.27773           0 
   2.0819     0.31432           0 
    2.058     0.35592           0 
   2.1563     0.26454           0 
   2.0913     0.30208           0 
   2.0521     0.36634           0 
   2.0461     0.39748           0 
   2.1444     0.26568           0 
   2.1155     0.27882           0 
   2.0967     0.29108           0 
   2.0461      0.3767           0 
   2.1324     0.26683           0 
    2.058     0.33514           0 
    2.064     0.32474           0 
     2.04     0.40789           0 
   2.1852     0.25134           0 
   2.1961     0.25095           0 
   2.1733     0.25247           0 
   2.0699     0.31434           0 
    2.052     0.34555           0 
   2.0793     0.30259           0 
   2.0401      0.3871           0 
   2.1035     0.27991           0 
   2.1613     0.25363           0 
    2.046     0.35595           0 
   2.1205     0.26791           0 
   2.1494     0.25478           0 
   2.0848     0.29195           0 
     2.04     0.36636           0 
   2.0341     0.39749           0 
   2.1374     0.25593           0 
   2.1086     0.26902           0 
   2.0341      0.3767           0 
   2.0899     0.28125           0 
   2.1256     0.25705           0 
    2.052     0.32476           0 
    2.046     0.33517           0 
   2.0579     0.31436           0 
   2.1782     0.24153           0 
   2.1663     0.24272           0 
   2.0639     0.30396           0 
     2.04     0.34558           0 
    2.028      0.4079           0 
   2.1961     0.23889           0 
   2.0729     0.29247           0 
   2.1543     0.24383           0 
   2.0281      0.3871           0 
    2.034     0.35598           0 
   2.0952     0.27058           0 
   2.1136     0.25815           0 
   2.1424     0.24504           0 
   2.0785     0.28191           0 
    2.028     0.36639           0 
   2.0222     0.39753           0 
   2.1305     0.24613           0 
   2.1008     0.25996           0 
   2.0221      0.3768           0 
     2.04      0.3248           0 
   2.0459     0.31439           0 
   2.0836     0.27116           0 
   2.0609     0.29312           0 
   2.1831     0.23059           0 
   2.1712      0.2318           0 
    2.034     0.33519           0 
   2.0519     0.30398           0 
   2.1187     0.24727           0 
   2.1593     0.23294           0 
    2.028      0.3456           0 
   2.0665     0.28257           0 
    2.016     0.40791           0 
   2.1474     0.23404           0 
   2.1961     0.22683           0 
   2.0161     0.38717           0 
    2.022     0.35602           0 
   2.1063     0.24932           0 
   2.0888     0.26045           0 
   2.1355     0.23525           0 
    2.072     0.27193           0 
    2.016     0.36643           0 
   2.1236     0.23632           0 
   2.0489     0.29357           0 
   2.0102     0.39755           0 
   2.0339     0.31445           0 
   2.1866     0.22062           0 
   2.0398     0.30405           0 
   2.0279     0.32484           0 
   2.1762      0.2209           0 
   2.0943     0.24982           0 
   2.1643       0.222           0 
   2.0101     0.37679           0 
    2.022     0.33523           0 
   2.0546     0.28298           0 
   2.0772     0.26112           0 
   2.1523     0.22323           0 
   2.1116     0.23754           0 
    2.016     0.34563           0 
   2.1404     0.22431           0 
     2.06      0.2725           0 
    2.004     0.40793           0 
   2.1961     0.21477           0 
   2.0101     0.35604           0 
   2.0041     0.38719           0 
   2.0824     0.25031           0 
   2.1285     0.22555           0 
   2.0997     0.23859           0 
   2.0652     0.26201           0 
   2.0041     0.36644           0 
   2.0426     0.28341           0 
   2.0278      0.3041           0 
   2.0219     0.31444           0 
   2.1165     0.22661           0 
   2.1835     0.20991           0 
   1.9982      0.3976           0 
   2.1693     0.21112           0 
   2.0159     0.32485           0 
   2.0338     0.29368           0 
   2.1574     0.21232           0 
   2.0878      0.2398           0 
     2.01     0.33526           0 
   1.9981     0.37684           0 
   2.0705     0.25121           0 
   2.1454     0.21343           0 
   2.1046     0.22788           0 
    2.004     0.34568           0 
   2.0457     0.27289           0 
   2.1335     0.21466           0 
   1.9919     0.40794           0 
   1.9981     0.35605           0 
   2.0517     0.26249           0 
   2.1961     0.20271           0 
   1.9921     0.38724           0 
   2.1216     0.21576           0 
   2.0755     0.24053           0 
   2.0927     0.22893           0 
   2.0159     0.30407           0 
   1.9921     0.36648           0 
[...]
POINT_DATA 8230
SCALARS pressure double
LOOKUP_TABLE default
 0.00035148 
 0.00047507 
 0.00029234 
 0.00060809 
 0.00078606 
 0.00027458 
  0.0004574 
 0.00080144 
 0.00098224 
  0.0011613 
 0.00021393 
 0.00057388 
  0.0011813 
 0.00099688 
  0.0013655 
 0.00040839 
  0.0015491 
 0.00080987 
 0.00021748 
  0.0013821 
  0.0015691 
  0.0005635 
   0.001191 
   0.001755 
   0.001942 
 0.00099007 
 0.00028801 
  0.0017719 
 0.00043443 
  0.0015802 
  0.0019606 
 0.00078776 
   0.001383 
  0.0021484 
   0.002338 
  0.0011801 
 0.00028215 
  0.0019734 
  0.0021658 
 0.00059067 
  0.0017774 
  0.0023557 
 0.00097776 
  0.0015774 
  0.0025452 
  0.0023695 
 0.00043456 
  0.0027372 
  0.0013751 
  0.0021735 
  0.0025626 
 0.00030742 
 0.00078288 
  0.0019754 
   0.002754 
  0.0011757 
  0.0017739 
  0.0029452 
  0.0025721 
  0.0027682 
  0.0023741 
  0.0029624 
 0.00056056 
  0.0031394 
  0.0015724 
 0.00024314 
 0.00098221 
  0.0021748 
  0.0031552 
  0.0013776 
  0.0019704 
  0.0033482 
  0.0029729 
 0.00041987 
  0.0031696 
  0.0027747 
 0.00080274 
  0.0025756 
  0.0033648 
  0.0017693 
  0.0035446 
 0.00029526 
  0.0011824 
  0.0023761 
   0.003559 
  0.0015749 
  0.0021647 
  0.0037536 
  0.0033761 
  0.0031774 
 0.00047475 
  0.0029777 
  0.0035737 
 0.00098112 
  0.0027789 
  0.0037701 
   0.003952 
  0.0019432 
 0.00028662 
  0.0013891 
  0.0025852 
  0.0039653 
  0.0035822 
  0.0033814 
  0.0037817 
  0.0017471 
  0.0041614 
  0.0023541 
 0.00073491 
  0.0031796 
    0.00398 
 0.00039424 
  0.0011336 
  0.0029814 
  0.0041778 
  0.0043618 
   0.000246 
  0.0020852 
  0.0027801 
  0.0043743 
  0.0037885 
  0.0039891 
 0.00034259 
 0.00067767 
  0.0035849 
  0.0041896 
  0.0014835 
  0.0010662 
  0.0043887 
  0.0033801 
  0.0045715 
   0.002454 
  0.0018687 
  0.0031259 
  0.0045877 
  0.0047739 
 0.00020676 
  0.0047859 
  0.0041968 
  0.0028493 
  0.0039965 
  0.0043983 
 0.00052652 
 0.00091239 
   0.002279 
  0.0037939 
  0.0045998 
  0.0012904 
  0.0035175 
  0.0048001 
  0.0049842 
  0.0016923 
  0.0026603 
  0.0032818 
  0.0049997 
  0.0021011 
   0.004607 
   0.004404 
  0.0051884 
 0.00040224 
 0.00021877 
 0.00074466 
  0.0042026 
    0.00481 
  0.0038909 
  0.0051995 
  0.0030672 
  0.0011319 
  0.0050124 
  0.0024899 
  0.0015264 
  0.0036993 
  0.0052142 
  0.0053984 
   0.001932 
   0.002895 
  0.0054141 
  0.0035117 
  0.0023237 
  0.0048153 
  0.0050198 
  0.0046104 
 0.00058907 
 0.00097342 
  0.0044019 
  0.0052239 
  0.0056049 
 0.00017806 
  0.0040901 
  0.0013667 
   0.005615 
  0.0054275 
  0.0033329 
  0.0027244 
  0.0017649 
   0.003914 
  0.0056304 
  0.0058142 
  0.0021607 
  0.0031535 
  0.0058316 
  0.0052296 
  0.0050247 
  0.0037345 
  0.0045061 
 0.00044544 
 0.00082159 
  0.0054345 
  0.0048189 
  0.0025563 
  0.0012083 
  0.0056398 
   0.004319 
  0.0060248 
  0.0016015 
 0.00017141 
  0.0060335 
  0.0058445 
   0.002969 
  0.0035542 
  0.0019982 
  0.0041362 
  0.0060483 
  0.0023987 
  0.0049352 
  0.0062336 
  0.0054409 
 0.00034649 
  0.0052427 
  0.0056476 
 0.00067424 
  0.0033751 
  0.0010528 
  0.0062509 
  0.0058531 
  0.0047223 
  0.0039586 
  0.0014435 
  0.0027901 
  0.0060583 
  0.0018377 
  0.0045439 
   0.006446 
 0.00014399 
  0.0062637 
  0.0064538 
  0.0037778 
  0.0022358 
  0.0031954 
  0.0043653 
  0.0064687 
  0.0051486 
  0.0056523 
  0.0058588 
  0.0026347 
 0.00043286 
  0.0066552 
 0.00089436 
  0.0060665 
  0.0054462 
  0.0012834 
  0.0035995 
  0.0062723 
  0.0066722 
  0.0041856 
  0.0016774 
  0.0030341 
   0.006479 
  0.0050285 
  0.0020694 
  0.0068697 
   0.006685 
  0.0048271 
 0.00013135 
  0.0068764 
  0.0024679 
  0.0040047 
  0.0034342 
  0.0060709 
   0.006891 
  0.0046231 
  0.0058632 
  0.0062787 
 0.00073882 
 0.00036691 
  0.0011258 
  0.0064867 
  0.0028769 
  0.0056581 
  0.0015184 
  0.0070795 
  0.0066934 
  0.0054541 
  0.0038224 
  0.0019198 
  0.0070958 
  0.0044025 
  0.0069018 
  0.0052426 
  0.0032659 
  0.0022947 
  0.0072961 
  0.0071086 
  0.0050359 
 0.00010115 
  0.0073013 
  0.0027234 
  0.0042233 
  0.0062821 
  0.0064924 
  0.0036645 
 0.00057492 
 0.00096248 
  0.0060748 
  0.0067011 
  0.0013554 
  0.0073155 
   0.004833 
  0.0058659 
  0.0069095 
  0.0017516 
  0.0031253 
   0.007506 
  0.0071174 
  0.0056579 
  0.0021384 
  0.0040635 
   0.007522 
  0.0046313 
  0.0073266 
  0.0054502 
  0.0075346 
  0.0052446 
  0.0077253 
  0.0035984 
  0.0067031 
 0.00037203 
   0.007729 
  9.532e-05 
  0.0064943 
  0.0069148 
  0.0039301 
 0.00080194 
  0.0029633 
  0.0011943 
  0.0044698 
  0.0062844 
  0.0071242 
  0.0026439 
  0.0015921 
  0.0060743 
  0.0073341 
  0.0077418 
  0.0050426 
  0.0019777 
  0.0033587 
  0.0075429 
  0.0058664 
  0.0079361 
  0.0042923 
  0.0079503 
  0.0048514 
  0.0077529 
  0.0056587 
  0.0024695 
  0.0071259 
  0.0069162 
 0.00064244 
  0.0079618 
  0.0067051 
  0.0054533 
  0.0073392 
  0.0010335 
  0.0040729 
   0.008159 
  0.0014291 
  0.0064937 
  0.0081597 
  0.0075499 
 8.3771e-05 
  0.0046581 
   0.001817 
  0.0028488 
  0.0077609 
  0.0062829 
   0.008169 
  0.0052533 
  0.0038343 
  0.0032118 
  0.0079707 
  0.0060757 
  0.0022656 
  0.0083706 
  0.0044566 
  0.0081818 
  0.0083805 
  0.0058671 
  0.0050581 
  0.0073384 
  0.0036332 
  0.0075521 
  0.0071274 
  0.0026561 
 0.00043096 
 0.00087941 
  0.0012663 
  0.0077649 
  0.0069119 
  0.0016577 
  0.0083908 
  0.0056613 
  0.0067011 
  0.0079758 
  0.0042639 
  0.0085988 
  0.0085937 
 9.5723e-05 
   0.004862 
  0.0030351 
  0.0081883 
  0.0064933 
  0.0020636 
  0.0054647 
  0.0085953 
  0.0083996 
  0.0062835 
   0.004059 
  0.0024537 
   0.000312 
  0.0088137 
  0.0034446 
  0.0010615 
  0.0046709 
 0.00069301 
   0.008611 
  0.0060745 
  0.0077655 
    0.00881 
  0.0075509 
  0.0052671 
  0.0073328 
  0.0079787 
  0.0014503 
  0.0071226 
  0.0081917 
  0.0028492 
  0.0018566 
  0.0084049 
  0.0088174 
  0.0069126 
  0.0058736 
  0.0038544 
  0.0044618 
  0.0090362 
  0.0050735 
  0.0090398 
 0.00010301 
  0.0086183 
  0.0067024 
  0.0032504 
  0.0022522 
  0.0056767 
  0.0089919 
  0.0088316 
  0.0064926 
 0.00086453 
 0.00048715 
    0.00265 
  0.0048578 
  0.0042497 
  0.0012548 
  0.0079773 
  0.0077573 
   0.008192 
  0.0036581 
  0.0062845 
  0.0075436 
  0.0084072 
  0.0090471 
  0.0093133 
   0.009257 
  0.0016577 
  0.0054792 
   0.008621 
  0.0073339 
  0.0030526 
  0.0020575 
  0.0071195 
  0.0088338 
  0.0092568 
  0.0046449 
  0.0060861 
    0.00406 
   0.009457 
  0.0052668 
  0.0090487 
  0.0069093 
 9.6777e-05 
  0.0024562 
  0.0094128 
  0.0034502 
  0.0010977 
  0.0007149 
  0.0058712 
  0.0066996 
  0.0092646 
  0.0095999 
  0.0081825 
 0.00037685 
  0.0084024 
  0.0014574 
  0.0079698 
  0.0086205 
  0.0028572 
  0.0044578 
  0.0050534 
  0.0088364 
  0.0077558 
  0.0038485 
  0.0064879 
  0.0094841 
  0.0018518 
  0.0056729 
  0.0090494 
  0.0075409 
  0.0032584 
  0.0092635 
  0.0073277 
  0.0022514 
  0.0062783 
  0.0096999 
  0.0048451 
  0.0098367 
  0.0098611 
  0.0042513 
  0.0094786 
  0.0071165 
  0.0054603 
  0.0098883 
 0.00093206 
  0.0026512 
 0.00013812 
  0.0036562 
  0.0012674 
   0.006069 
  0.0086105 
  0.0083944 
  0.0069014 
  0.0088296 
  0.0096917 
  0.0005155 
  0.0081805 
  0.0090503 
  0.0016568 
  0.0030478 
  0.0079604 
  0.0092697 
  0.0046512 
  0.0052508 
  0.0040408 
  0.0020477 
  0.0066924 
  0.0099045 
   0.010062 
  0.0094791 
  0.0077484 
  0.0058658 
  0.0034494 
   0.009694 
  0.0075344 
  0.0024484 
   0.010127 
  0.0064791 
  0.0050422 
  0.0044428 
 0.00096245 
  0.0073161 
  0.0099045 
  0.0056583 
   0.010287 
   0.002853 
  0.0088213 
  0.0090408 
 0.00011675 
  0.0014451 
  0.0038479 
  0.0092554 
   0.008604 
   0.010317 
  0.0083812 
  0.0062697 
  0.0071051 
    0.01011 
  0.0094831 
  0.0018505 
   0.010329 
  0.0081652 
  0.0032397 
  0.0097021 
  0.0048433 
  0.0054466 
    0.00225 
 0.00049687 
  0.0099083 
  0.0079501 
  0.0042356 
  0.0068916 
   0.010339 
  0.0060615 
  0.0077331 
   0.010117 
   0.010553 
  0.0036387 
  0.0026462 
  0.0066808 
  0.0012594 
   0.010573 
 0.00087991 
  0.0052487 
  0.0075154 
  0.0046372 
   0.010331 
  0.0092529 
   0.009026 
  0.0094691 
  0.0058518 
  0.0030439 
   0.010734 
  0.0088069 
  0.0096893 
  0.0016559 
  0.0040401 
 0.00012567 
  0.0085832 
   0.010773 
  0.0099143 
  0.0073042 
  0.0064751 
  0.0020508 
   0.010565 
  0.0083699 
   0.010781 
   0.010151 
  0.0034331 
  0.0024375 
  0.0050377 
  0.0081514 
  0.0056495 
  0.0070969 
  0.0044379 
    0.01036 
   0.010801 
 0.00064872 
  0.0062433 
  0.0079336 
  0.0010462 
  0.0038272 
  0.0028357 
      0.011 
   0.010562 
   0.009454 
  0.0014529 
  0.0068769 
  0.0096723 
  0.0092284 
  0.0099003 
  0.0077186 
  0.0054355 
  0.0048215 
   0.009011 
   0.011054 
   0.010131 
  0.0018488 
   0.010781 
  0.0032354 
    0.00606 
   0.011168 
  0.0042215 
  0.0087934 
   0.010357 
 0.00016154 
   0.011211 
  0.0075066 
  0.0022451 
  0.0066504 
  0.0085702 
   0.011002 
   0.010564 
 0.00042569 
   0.011221 
  0.0036355 
  0.0052222 
  0.0026314 
   0.008351 
   0.010799 
  0.0058393 
  0.0073016 
  0.0046267 
 0.00086211 
  0.0012428 
  0.0081322 
   0.011261 
  0.0064586 
   0.010992 
  0.0016377 
   0.004025 
  0.0030292 
   0.010096 
  0.0096493 
  0.0098746 
   0.011433 
  0.0094365 
   0.010329 
  0.0079194 
   0.009218 
   0.010533 
  0.0070478 
   0.011217 
  0.0020361 
   0.005624 
  0.0050195 
  0.0089867 
  0.0034291 
  0.0062469 
   0.010735 
   0.011602 
   0.004407 
  0.0024364 
 0.00016336 
   0.011519 
  0.0077049 
   0.010987 
   0.011644 
  0.0068199 
  0.0087689 
   0.011447 
 0.00060333 
   0.011651 
  0.0038286 
  0.0085479 
  0.0028249 
  0.0054062 
   0.011202 
  0.0010556 
  0.0060233 
  0.0075021 
  0.0048293 
  0.0014487 
   0.010299 
    0.01008 
    0.01053 
  0.0083317 
  0.0098629 
   0.011419 
  0.0018247 
  0.0066386 
  0.0032216 
  0.0042284 
  0.0096395 
    0.01076 
   0.011865 
   0.010957 
  0.0094057 
   0.011731 
   0.011172 
  0.0072031 
  0.0022152 
  0.0081153 
  0.0091866 
  0.0058099 
  0.0052214 
   0.011657 
  0.0036351 
  0.0064121 
   0.011906 
   0.012037 
  0.0026163 
    0.00699 
  0.0046407 
  0.0089783 
   0.011421 
  0.0078957 
 0.00041769 
 0.00018224 
   0.012079 
 0.00084477 
   0.011616 
  0.0012418 
   0.012093 
  0.0040347 
  0.0087449 
  0.0030188 
   0.011926 
  0.0050371 
  0.0056225 
   0.010722 
   0.010509 
  0.0016344 
   0.010286 
  0.0076895 
  0.0062137 
   0.010051 
   0.010964 
    0.01208 
  0.0085278 
  0.0020131 
  0.0098282 
   0.011787 
   0.011179 
  0.0068165 
   0.011334 
  0.0034167 
  0.0044353 
  0.0096084 
   0.012302 
  0.0073672 
   0.011631 
     0.0024 
  0.0083183 
  0.0093954 
   0.012341 
  0.0060177 
   0.012223 
  0.0054244 
  0.0028012 
   0.012087 
  0.0038435 
   0.006621 
 0.00063147 
   0.011849 
  0.0010278 
  0.0048142 
   0.012473 
  0.0091866 
  0.0072109 
  0.0001826 
   0.012515 
  0.0014257 
   0.012055 
  0.0080826 
  0.0089365 
   0.010716 
   0.012531 
  0.0042414 
   0.011163 
   0.010955 
  0.0031964 
   0.010476 
  0.0077977 
  0.0018234 
  0.0051888 
  0.0058058 
   0.011777 
   0.012214 
   0.010252 
     0.0114 
   0.012381 
   0.011603 
  0.0064195 
   0.010013 
  0.0022228 
   0.012554 
  0.0087222 
  0.0070248 
  0.0097841 
  0.0046299 
  0.0035951 
  0.0025992 
   0.012739 
   0.012028 
  0.0075981 
  0.0095778 
  0.0085072 
 0.00046156 
  0.0055825 
 0.00084463 
  0.0049394 
   0.012757 
  0.0061939 
   0.012657 
  0.0029553 
  0.0040434 
   0.012279 
  0.0012229 
  0.0068158 
  0.0093552 
    0.01253 
   0.012909 
  0.0082934 
  0.0074285 
  0.0016183 
   0.011612 
   0.012489 
   0.010902 
   0.011143 
 0.00022056 
   0.011382 
    0.01295 
   0.010672 
  0.0091336 
   0.011815 
  0.0044348 
   0.002028 
   0.012964 
   0.010438 
  0.0080001 
  0.0033635 
  0.0053683 
   0.012191 
  0.0059799 
   0.010199 
   0.012828 
  0.0066063 
  0.0024167 
  0.0072031 
  0.0089187 
   0.012979 
  0.0099927 
   0.012405 
  0.0048164 
   0.002811 
 0.00052497 
  0.0078153 
   0.013172 
  0.0097789 
  0.0087024 
  0.0010356 
  0.0038137 
   0.005768 
  0.0014269 
    0.01319 
   0.008414 
  0.0031838 
  0.0063746 
   0.012652 
  0.0095525 
    0.00422 
    0.01313 
   0.011606 
  0.0070288 
   0.011366 
   0.012996 
   0.011808 
   0.011105 
  0.0018341 
   0.012014 
   0.013344 
   0.007608 
   0.012919 
   0.010867 
  0.0035078 
   0.010619 
   0.012366 
 0.00025138 
   0.013384 
  0.0093258 
  0.0022301 
  0.0046344 
  0.0068187 
   0.013395 
  0.0082194 
   0.012591 
   0.010404 
  0.0052087 
  0.0061687 
  0.0026292 
   0.013226 
   0.010174 
  0.0091114 
  0.0074325 
   0.012819 
   0.013418 
 0.00046749 
 0.00084045 
  0.0030286 
  0.0056188 
  0.0099655 
   0.013066 
  0.0012405 
  0.0080052 
   0.013605 
  0.0088965 
   0.011599 
  0.0016405 
   0.011822 
   0.012082 
   0.007211 
  0.0034172 
   0.012319 
   0.013619 
   0.011294 
  0.0086138 
  0.0065646 
  0.0097433 
  0.0060051 
   0.012543 
  0.0041669 
   0.011026 
  0.0020451 
  0.0037876 
  0.0050665 
  0.0078279 
   0.013778 
    0.01082 
   0.013274 
   0.012796 
   0.013624 
   0.010562 
  0.0024365 
  0.0095236 
   0.013415 
   0.013816 
 0.00029617 
   0.013021 
  0.0069916 
   0.008412 
   0.013826 
  0.0046128 
  0.0028326 
 0.00062407 
   0.010374 
  0.0054753 
   0.013245 
  0.0093103 
   0.006387 
   0.013641 
   0.007614 
    0.01384 
  0.0014598 
  0.0010671 
  0.0032334 
  0.0058574 
    0.01016 
   0.013471 
   0.012019 
   0.011781 
   0.012267 
  0.0018378 
  0.0082225 
   0.013828 
   0.012509 
   0.014036 
  0.0067754 
  0.0090989 
   0.012767 
   0.011439 
  0.0099558 
   0.003628 
  0.0073921 
   0.014049 
   0.013701 
  0.0062507 
   0.013006 
  0.0088249 
   0.011223 
  0.0022392 
   0.004017 
   0.010974 
  0.0097123 
  0.0050258 
   0.013233 
  0.0080079 
    0.01421 
  0.0026365 
   0.014067 
   0.013881 
   0.010789 
   0.014248 
   0.013458 
 0.00038093 
 0.00051276 
  0.0044083 
 0.00085797 
  0.0086264 
   0.007178 
   0.014258 
  0.0030384 
  0.0095382 
  0.0012698 
  0.0054355 
   0.010571 
   0.013682 
  0.0066354 
  0.0016485 
   0.014108 
  0.0077967 
   0.014273 
     0.0122 
   0.012448 
  0.0034377 
  0.0047946 
    0.01196 
   0.012697 
  0.0093089 
  0.0020355 
   0.006103 
    0.01036 
   0.013907 
  0.0038356 
    0.01295 
  0.0058123 
  0.0084076 
     0.0132 
   0.011631 
  0.0024559 
   0.014467 
  0.0069735 
   0.010126 
   0.014305 
   0.011379 
   0.013441 
  0.0051865 
   0.014118 
  0.0075809 
   0.014481 
   0.011134 
  0.0064616 
  0.0090362 
   0.004222 
   0.002863 
   0.013673 
   0.010917 
  0.0082011 
  0.0099396 
   0.014642 
   0.014502 
   0.014328 
  0.0032682 
   0.013901 
   0.014678 
  0.0046088 
   0.010725 
  0.0097089 
  0.0073725 
   0.014688 
  0.0088115 
   0.014126 
  0.0055561 
  0.0068415 
  0.0036903 
   0.012626 
    0.01238 
   0.012878 
  0.0061962 
   0.014537 
    0.01214 
  0.0079882 
   0.013133 
   0.014706 
   0.010535 
   0.013387 
  0.0049621 
  0.0094845 
   0.011729 
   0.014344 
   0.013636 
  0.0040727 
  0.0086091 
   0.010305 
  0.0072213 
   0.011551 
   0.014897 
   0.013879 
   0.014736 
   0.011323 
   0.014557 
   0.005308 
  0.0077775 
   0.014912 
   0.014115 
  0.0092983 
  0.0044676 
  0.0059533 
   0.011128 
   0.010117 
  0.0066185 
  0.0083901 
   0.014345 
   0.014936 
   0.014765 
   0.015072 
   0.015107 
   0.010934 
   0.012157 
  0.0098885 
  0.0048429 
   0.012803 
   0.013054 
    0.01256 
   0.013309 
   0.015118 
   0.014569 
  0.0090007 
  0.0075775 
   0.010689 
   0.013567 
  0.0056873 
   0.014968 
   0.011935 
   0.013823 
  0.0081798 
   0.015138 
  0.0073089 
   0.014785 
   0.011733 
   0.014074 
  0.0097042 
  0.0052153 
  0.0063654 
  0.0087978 
   0.010502 
    0.01432 
   0.015326 
   0.011529 
   0.015168 
  0.0070294 
   0.014995 
   0.014558 
   0.010281 
  0.0079716 
   0.015342 
  0.0094844 
   0.011297 
  0.0055912 
  0.0085896 
   0.014788 
     0.0152 
   0.015367 
   0.015501 
     0.0111 
   0.013225 
   0.012975 
   0.013481 
    0.01273 
    0.01374 
   0.015534 
  0.0067744 
   0.010091 
   0.012494 
   0.014001 
   0.015011 
    0.01086 
  0.0077169 
  0.0092888 
   0.015547 
   0.012127 
    0.01426 
  0.0060871 
   0.015401 
  0.0083778 
   0.011915 
   0.015568 
   0.014514 
  0.0098815 
   0.015225 
   0.010685 
   0.014762 
  0.0090789 
   0.011708 
  0.0075003 
   0.015599 
   0.015754 
   0.015432 
  0.0064859 
   0.015001 
    0.01047 
   0.011491 
  0.0081622 
    0.01577 
   0.009692 
   0.011266 
  0.0071673 
   0.015231 
   0.013394 
   0.013649 
   0.013144 
   0.013909 
   0.015634 
  0.0088912 
   0.012901 
   0.014172 
   0.015797 
   0.015928 
   0.012665 
   0.014436 
    0.01028 
   0.009484 
   0.015961 
   0.015452 
   0.012313 
  0.0068571 
   0.011058 
   0.014697 
   0.015975 
   0.015833 
   0.012111 
   0.014954 
   0.010078 
  0.0086871 
   0.015996 
   0.015664 
  0.0079621 
   0.015204 
   0.011929 
   0.010889 
  0.0092943 
  0.0072767 
   0.016029 
   0.016183 
   0.015444 
   0.015869 
    0.01166 
   0.010678 
   0.011428 
  0.0098871 
   0.013814 
   0.016197 
   0.013561 
   0.014073 
   0.013314 
   0.014336 
  0.0084934 
   0.015673 
   0.013073 
   0.014603 
  0.0090943 
   0.016068 
   0.012838 
   0.014871 
   0.016225 
   0.016358 
   0.010482 
  0.0077052 
   0.015893 
   0.012601 
  0.0096873 
   0.015136 
     0.0164 
   0.016399 
   0.011304 
   0.012379 
   0.015395 
   0.016264 
  0.0083085 
   0.016102 
   0.010284 
  0.0089011 
   0.016423 
   0.012163 
   0.015646 
   0.011081 
  0.0094961 
  0.0080552 
   0.011944 
   0.015886 
   0.016458 
   0.016304 
   0.013978 
   0.014234 
   0.016601 
   0.013728 
   0.014496 
   0.010877 
   0.011687 
   0.013486 
   0.014764 
   0.010098 
   0.016622 
    0.01325 
   0.015034 
   0.016115 
  0.0087181 
    0.01302 
   0.015306 
  0.0092967 
   0.016501 
   0.016652 
    0.01279 
   0.015574 
   0.016792 
   0.010688 
   0.016332 
   0.008488 
  0.0098957 
   0.012569 
   0.015835 
   0.016823 
   0.011573 
   0.016694 
   0.016879 
    0.01654 
   0.012354 
   0.010501 
   0.016088 
   0.016848 
  0.0091189 
  0.0097036 
   0.014394 
   0.014142 
   0.014654 
    0.01214 
   0.016328 
   0.013897 
    0.01492 
   0.016885 
   0.016739 
  0.0089014 
   0.013658 
   0.015191 
    0.01703 
   0.011076 
   0.013426 
   0.015466 
   0.011961 
   0.011468 
   0.010295 
   0.017046 
   0.016556 
   0.013199 
   0.015741 
  0.0095173 
   0.016932 
   0.012975 
   0.016012 
   0.017077 
   0.010896 
   0.016771 
   0.017209 
   0.012758 
   0.016276 
   0.010104 
  0.0093043 
   0.017247 
   0.017122 
   0.017311 
   0.012546 
   0.016976 
   0.016529 
   0.010692 
   0.017271 
   0.014555 
    0.01481 
   0.014307 
   0.015073 
   0.014066 
   0.015343 
   0.012014 
   0.011501 
    0.01234 
   0.016769 
   0.013832 
   0.015618 
  0.0099277 
   0.017172 
   0.017311 
   0.013603 
   0.015897 
   0.017452 
   0.011297 
   0.010514 
   0.016996 
    0.01338 
  0.0096929 
   0.016176 
   0.017468 
   0.013161 
    0.01645 
   0.017362 
   0.017501 
   0.010327 
   0.017209 
   0.011094 
   0.017629 
   0.012948 
   0.016716 
   0.011894 
   0.017667 
   0.017549 
   0.012739 
   0.014967 
    0.01697 
   0.014716 
   0.015225 
   0.017411 
    0.01773 
   0.014473 
   0.015492 
   0.010912 
   0.010135 
   0.011697 
   0.014237 
   0.015766 
   0.017692 
   0.014007 
   0.016045 
   0.012529 
    0.01721 
   0.013782 
   0.016328 
   0.017603 
   0.017735 
   0.011489 
   0.017869 
   0.010715 
   0.013563 
    0.01661 
   0.012305 
   0.017435 
   0.017886 
   0.013348 
   0.016887 
    0.01779 
   0.010504 
   0.017921 
   0.017646 
   0.011305 
   0.013137 
   0.017155 
   0.012083 
   0.018046 
   0.015125 
   0.015378 
    0.01488 
    0.01564 
   0.014641 
    0.01293 
    0.01591 
   0.018084 
    0.01741 
   0.017974 
   0.017844 
    0.01441 
   0.016188 