# vtk DataFile Version 2.0
Steady-state stabilized finite element formulation for the 2D incopmpressible Navier Stokes equations
ASCII

DATASET UNSTRUCTURED_GRID
POINTS 8230 double
    2.197     0.40801           0 
   2.1849     0.40802           0 
   2.1969     0.39595           0 
   2.1787     0.39756           0 
   2.1729     0.40803           0 
   2.1969     0.38389           0 
   2.1847     0.38715           0 
   2.1727     0.38717           0 
   2.1667     0.39758           0 
   2.1609     0.40804           0 
   2.1969     0.37183           0 
   2.1797     0.37595           0 
   2.1607     0.38719           0 
   2.1667      0.3768           0 
   2.1547      0.3976           0 
   2.1852     0.36611           0 
   2.1489     0.40806           0 
   2.1727     0.36639           0 
   2.1969     0.35977           0 
   2.1547     0.37682           0 
   2.1487     0.38722           0 
   2.1797     0.35662           0 
   2.1607     0.36641           0 
   2.1427     0.39762           0 
   2.1368     0.40807           0 
   2.1667     0.35601           0 
   2.1969     0.34772           0 
   2.1427     0.37684           0 
   2.1846     0.34558           0 
   2.1487     0.36644           0 
   2.1367     0.38724           0 
   2.1726      0.3456           0 
   2.1547     0.35603           0 
   2.1307     0.39763           0 
   2.1248     0.40808           0 
   2.1606     0.34562           0 
   2.1969     0.33566           0 
   2.1367     0.36646           0 
   2.1307     0.37685           0 
   2.1786     0.33521           0 
   2.1427     0.35605           0 
   2.1247     0.38726           0 
   2.1666     0.33523           0 
   2.1486     0.34565           0 
   2.1187     0.39766           0 
   2.1247     0.36647           0 
   2.1846      0.3248           0 
   2.1128     0.40809           0 
   2.1546     0.33525           0 
   2.1307     0.35607           0 
   2.1187     0.37688           0 
   2.1969      0.3236           0 
   2.1726     0.32482           0 
   2.1366     0.34567           0 
   2.1127     0.38728           0 
   2.1606     0.32484           0 
   2.1426     0.33527           0 
   2.1067     0.39769           0 
   2.1187      0.3561           0 
   2.1127      0.3665           0 
   2.1246     0.34569           0 
   2.1067     0.37691           0 
   2.1796     0.31394           0 
   2.1008      0.4081           0 
   2.1486     0.32487           0 
   2.1969     0.31154           0 
   2.1666     0.31444           0 
   2.1306     0.33529           0 
   2.1007      0.3873           0 
   2.1546     0.31446           0 
   2.1366     0.32489           0 
   2.0947     0.39771           0 
   2.1067     0.35612           0 
   2.1846     0.30401           0 
   2.1007     0.36652           0 
   2.1126     0.34572           0 
   2.1726     0.30404           0 
   2.1186     0.33532           0 
   2.0947     0.37693           0 
   2.1426     0.31448           0 
   2.0888     0.40811           0 
   2.1968     0.29948           0 
   2.1606     0.30406           0 
   2.1246     0.32491           0 
   2.0887     0.38732           0 
   2.1486     0.30409           0 
   2.1306      0.3145           0 
   2.0827     0.39773           0 
   2.0947     0.35615           0 
   2.1006     0.34574           0 
   2.1822     0.29325           0 
   2.1066     0.33534           0 
   2.0887     0.36655           0 
   2.1665     0.29366           0 
   2.1126     0.32494           0 
   2.0827     0.37694           0 
   2.0767     0.40813           0 
   2.1369     0.30365           0 
   2.1968     0.28742           0 
   2.1545     0.29368           0 
   2.1186     0.31454           0 
   2.0767     0.38734           0 
   2.0886     0.34577           0 
   2.0946     0.33536           0 
   2.0827     0.35616           0 
   2.1425      0.2937           0 
   2.0707     0.39773           0 
   2.1257     0.30279           0 
   2.1725     0.28325           0 
   2.1006     0.32495           0 
   2.0767     0.36657           0 
   2.1853      0.2809           0 
   2.1619     0.28483           0 
   2.1066     0.31456           0 
   2.0707     0.37696           0 
   2.0647     0.40814           0 
   2.1968     0.27536           0 
   2.1325     0.29103           0 
   2.1126     0.30415           0 
   2.0647     0.38734           0 
   2.0826     0.33538           0 
   2.0766     0.34578           0 
   2.1878     0.27234           0 
   2.1759     0.27345           0 
   2.0886     0.32498           0 
   2.0707     0.35618           0 
    2.152       0.279           0 
    2.164     0.27459           0 
   2.0647     0.36658           0 
   2.0946     0.31458           0 
   2.0587     0.39773           0 
    2.123     0.28891           0 
   2.1389     0.27913           0 
   2.1006     0.30417           0 
   2.0587     0.37696           0 
   2.0527     0.40815           0 
   2.1968      0.2633           0 
   2.0527     0.38737           0 
   2.0706      0.3354           0 
   2.1111     0.28999           0 
   2.0766       0.325           0 
   2.0646      0.3458           0 
   2.1809     0.26254           0 
   2.1689     0.26366           0 
   2.1281     0.27802           0 
   2.0826      0.3146           0 
   2.0587      0.3562           0 
    2.157     0.26484           0 
   2.0919     0.30236           0 
   2.0527     0.36662           0 
   2.0467     0.39776           0 
   2.1451     0.26597           0 
   2.1161     0.27911           0 
   2.0974     0.29137           0 
   2.0467     0.37698           0 
   2.1331     0.26712           0 
   2.0586     0.33542           0 
   2.0646     0.32502           0 
   2.0407     0.40816           0 
   2.1859     0.25164           0 
   2.1968     0.25125           0 
   2.1739     0.25277           0 
   2.0706     0.31462           0 
   2.0526     0.34583           0 
   2.0799     0.30287           0 
   2.0407     0.38737           0 
   2.1042      0.2802           0 
   2.1619     0.25392           0 
   2.0467     0.35623           0 
   2.1212      0.2682           0 
   2.1501     0.25507           0 
   2.0855     0.29224           0 
   2.0407     0.36663           0 
   2.0347     0.39777           0 
    2.138     0.25623           0 
   2.1092      0.2693           0 
   2.0347     0.37698           0 
   2.0906     0.28153           0 
   2.1262     0.25734           0 
   2.0526     0.32504           0 
   2.0466     0.33545           0 
   2.0586     0.31464           0 
   2.1789     0.24183           0 
   2.1669     0.24302           0 
   2.0646     0.30424           0 
   2.0406     0.34585           0 
   2.0286     0.40817           0 
   2.1968     0.23919           0 
   2.0735     0.29275           0 
    2.155     0.24413           0 
   2.0287     0.38737           0 
   2.0347     0.35626           0 
   2.0959     0.27087           0 
   2.1143     0.25844           0 
   2.1431     0.24533           0 
   2.0791     0.28219           0 
   2.0287     0.36666           0 
   2.0228      0.3978           0 
   2.1311     0.24642           0 
   2.1014     0.26024           0 
   2.0227     0.37707           0 
   2.0406     0.32507           0 
   2.0466     0.31467           0 
   2.0843     0.27144           0 
   2.0616      0.2934           0 
   2.1838     0.23089           0 
   2.1719     0.23209           0 
   2.0346     0.33547           0 
   2.0526     0.30426           0 
   2.1193     0.24755           0 
     2.16     0.23323           0 
   2.0286     0.34587           0 
   2.0672     0.28286           0 
   2.0166     0.40819           0 
   2.1481     0.23434           0 
   2.1968     0.22713           0 
   2.0167     0.38745           0 
   2.0226     0.35629           0 
    2.107     0.24961           0 
   2.0894     0.26073           0 
   2.1361     0.23554           0 
   2.0727     0.27221           0 
   2.0167     0.36671           0 
   2.1242     0.23661           0 
   2.0496     0.29385           0 
   2.0108     0.39782           0 
   2.0345     0.31473           0 
   2.1872     0.22092           0 
   2.0405     0.30432           0 
   2.0285     0.32511           0 
   2.1769      0.2212           0 
    2.095     0.25011           0 
   2.1649      0.2223           0 
   2.0107     0.37706           0 
   2.0226      0.3355           0 
   2.0552     0.28326           0 
   2.0779     0.26141           0 
    2.153     0.22352           0 
   2.1123     0.23783           0 
   2.0167     0.34591           0 
   2.1411      0.2246           0 
   2.0607     0.27278           0 
   2.0046      0.4082           0 
   2.1968     0.21507           0 
   2.0107     0.35631           0 
   2.0047     0.38746           0 
   2.0831     0.25059           0 
   2.1291     0.22584           0 
   2.1004     0.23887           0 
   2.0659     0.26229           0 
   2.0047     0.36671           0 
   2.0432     0.28369           0 
   2.0285     0.30437           0 
   2.0225     0.31471           0 
   2.1172      0.2269           0 
   2.1842     0.21021           0 
   1.9988     0.39787           0 
   2.1699     0.21141           0 
   2.0166     0.32513           0 
   2.0344     0.29396           0 
    2.158     0.21262           0 
   2.0885     0.24009           0 
   2.0106     0.33553           0 
   1.9987     0.37711           0 
   2.0711     0.25149           0 
   2.1461     0.21373           0 
   2.1053     0.22817           0 
   2.0047     0.34595           0 
   2.0464     0.27317           0 
   2.1342     0.21495           0 
   1.9926     0.40821           0 
   1.9987     0.35632           0 
   2.0524     0.26277           0 
   2.1967     0.20301           0 
   1.9928     0.38751           0 
   2.1222     0.21605           0 
   2.0762     0.24082           0 
   2.0933     0.22921           0 
   2.0165     0.30435           0 
   1.9927     0.36675           0 
[...]
POINT_DATA 8230
SCALARS pressure double
LOOKUP_TABLE default
 0.00031169 
 0.00042827 
 0.00025191 
 0.00054538 
 0.00070354 
 0.00021395 
  0.0004072 
 0.00071176 
 0.00087262 
  0.0010307 
 0.00014772 
  0.0005089 
  0.0010432 
 0.00088028 
  0.0012059 
 0.00035345 
   0.001367 
 0.00071242 
  0.0001369 
  0.0012156 
  0.0013796 
 0.00049547 
   0.001048 
   0.001543 
  0.0017061 
 0.00087172 
 0.00018625 
   0.001553 
  0.0003746 
   0.001386 
  0.0017177 
 0.00069404 
  0.0012142 
  0.0018819 
  0.0020466 
  0.0010374 
 0.00018371 
  0.0017258 
  0.0018927 
 0.00052195 
  0.0015559 
  0.0020577 
 0.00086132 
  0.0013825 
  0.0022224 
  0.0020667 
 0.00037457 
  0.0023883 
  0.0012073 
  0.0018976 
  0.0022333 
 0.00019166 
 0.00069047 
  0.0017268 
  0.0023989 
   0.001035 
  0.0015527 
  0.0025642 
    0.00224 
  0.0024084 
  0.0020702 
  0.0025753 
 0.00049362 
  0.0027313 
  0.0013793 
 0.00013865 
 0.00086711 
  0.0018992 
  0.0027412 
  0.0012131 
  0.0017226 
  0.0029074 
  0.0025832 
 0.00036279 
  0.0027513 
  0.0024138 
 0.00070735 
  0.0022439 
  0.0029183 
  0.0015515 
  0.0030756 
 0.00018928 
   0.001044 
  0.0020738 
  0.0030846 
  0.0013891 
  0.0018896 
  0.0032513 
   0.002927 
   0.002758 
 0.00041698 
   0.002588 
  0.0030951 
 0.00087804 
  0.0024201 
  0.0032624 
  0.0034205 
  0.0017041 
 0.00017965 
    0.00122 
  0.0022551 
  0.0034289 
  0.0031028 
  0.0029327 
  0.0032716 
  0.0015443 
  0.0035961 
  0.0020469 
 0.00065689 
  0.0027614 
  0.0034397 
 0.00033968 
   0.000998 
  0.0025973 
  0.0036074 
  0.0037664 
 0.00016135 
  0.0018338 
  0.0024266 
  0.0037743 
   0.003279 
   0.003448 
 0.00028723 
 0.00060021 
  0.0031071 
  0.0036171 
  0.0012952 
 0.00094421 
   0.003785 
  0.0029336 
  0.0039418 
  0.0021301 
  0.0016565 
  0.0027367 
  0.0039531 
   0.004113 
 0.00013033 
  0.0041207 
   0.003625 
   0.002478 
  0.0034575 
  0.0037942 
 0.00046878 
 0.00081391 
  0.0019969 
  0.0032864 
  0.0039633 
  0.0011416 
  0.0030373 
  0.0041316 
  0.0042884 
  0.0014907 
  0.0023213 
  0.0028647 
  0.0042996 
   0.001849 
  0.0039714 
  0.0038018 
  0.0044607 
  0.0003531 
 0.00015083 
 0.00066488 
  0.0036338 
  0.0041412 
  0.0033692 
  0.0044679 
  0.0026726 
  0.0010051 
  0.0043106 
    0.00218 
  0.0013488 
  0.0032108 
  0.0044796 
  0.0046356 
  0.0017012 
  0.0025277 
  0.0046473 
  0.0030575 
  0.0020387 
  0.0041487 
   0.004319 
  0.0039784 
 0.00052866 
 0.00086733 
  0.0038068 
  0.0044891 
  0.0048091 
 0.00012788 
  0.0035431 
  0.0012105 
  0.0048159 
  0.0046589 
  0.0029035 
   0.002385 
  0.0015562 
  0.0033951 
  0.0048281 
  0.0049831 
  0.0018988 
  0.0027492 
  0.0049964 
  0.0044973 
  0.0043273 
  0.0032465 
  0.0038961 
 0.00039819 
 0.00073424 
  0.0046674 
  0.0041584 
  0.0022402 
  0.0010724 
  0.0048378 
  0.0037393 
  0.0051595 
   0.001414 
 0.00013347 
  0.0051652 
  0.0050081 
  0.0025923 
  0.0030954 
  0.0017584 
  0.0035862 
  0.0051776 
  0.0021044 
  0.0042552 
  0.0053328 
  0.0046768 
 0.00031087 
  0.0045101 
  0.0048479 
 0.00060198 
  0.0029427 
 0.00093555 
  0.0053464 
  0.0050178 
  0.0040824 
  0.0034369 
  0.0012759 
   0.002441 
  0.0051879 
   0.001618 
  0.0039329 
  0.0055102 
 0.00012623 
  0.0053581 
  0.0055157 
  0.0032867 
  0.0019631 
  0.0027892 
  0.0037853 
  0.0055282 
  0.0044386 
  0.0048569 
  0.0050269 
  0.0023071 
 0.00039005 
  0.0056838 
 0.00079574 
  0.0051981 
   0.004687 
   0.001135 
  0.0031359 
  0.0053682 
  0.0056974 
  0.0036341 
  0.0014774 
  0.0026508 
   0.005539 
  0.0043451 
  0.0018166 
  0.0058625 
  0.0057093 
  0.0041753 
 0.00012315 
  0.0058674 
  0.0021624 
  0.0034839 
   0.002995 
  0.0052081 
  0.0058799 
  0.0040057 
  0.0050379 
  0.0053785 
 0.00065817 
 0.00033313 
 0.00099539 
  0.0055493 
  0.0025151 
  0.0048694 
   0.001337 
  0.0060365 
  0.0057194 
  0.0046994 
  0.0033278 
  0.0016848 
  0.0060499 
  0.0038184 
  0.0058913 
  0.0045281 
  0.0028495 
  0.0020094 
  0.0062168 
   0.006062 
  0.0043564 
   0.000111 
  0.0062206 
  0.0023813 
  0.0036692 
  0.0053877 
  0.0055596 
  0.0031932 
 0.00051276 
 0.00085003 
  0.0052189 
  0.0057304 
   0.001192 
  0.0062328 
  0.0041871 
  0.0050475 
  0.0059013 
  0.0015358 
  0.0027293 
  0.0063908 
  0.0060721 
  0.0048776 
  0.0018718 
  0.0035335 
  0.0064041 
  0.0040167 
  0.0062443 
  0.0047069 
   0.006416 
  0.0045368 
   0.006573 
  0.0031345 
  0.0057399 
 0.00033973 
  0.0065758 
 0.00011554 
  0.0055697 
   0.005912 
    0.00342 
 0.00070702 
   0.002585 
  0.0010487 
  0.0038825 
  0.0053994 
  0.0060828 
  0.0023043 
  0.0013944 
  0.0052278 
  0.0062546 
  0.0065868 
  0.0043682 
  0.0017302 
  0.0029272 
  0.0064257 
   0.005058 
  0.0067478 
  0.0037303 
  0.0067598 
  0.0042055 
  0.0065986 
  0.0048871 
  0.0021546 
  0.0060919 
  0.0059222 
 0.00056288 
  0.0067709 
   0.005751 
  0.0047167 
  0.0062651 
 0.00090411 
  0.0035412 
  0.0069329 
  0.0012489 
  0.0055799 
  0.0069334 
  0.0064363 
 0.00011273 
  0.0040423 
  0.0015866 
  0.0024807 
  0.0066085 
  0.0054088 
  0.0069411 
    0.00455 
  0.0033346 
  0.0027981 
  0.0067805 
  0.0052393 
  0.0019744 
  0.0071084 
  0.0038707 
  0.0069539 
  0.0071168 
  0.0050676 
  0.0043847 
  0.0062738 
  0.0031604 
   0.006446 
  0.0061041 
  0.0023118 
 0.00038261 
 0.00076495 
  0.0011038 
  0.0066181 
  0.0059305 
  0.0014453 
  0.0071264 
  0.0048963 
  0.0057599 
  0.0067898 
  0.0037041 
  0.0072975 
  0.0072934 
 0.00012356 
  0.0042177 
  0.0026402 
  0.0069632 
  0.0055914 
  0.0017956 
  0.0047326 
  0.0072937 
  0.0071359 
  0.0054201 
  0.0035254 
  0.0021339 
 0.00028302 
  0.0074753 
  0.0029942 
 0.00092605 
  0.0040529 
 0.00060014 
  0.0073097 
  0.0052478 
  0.0066285 
  0.0074724 
  0.0064565 
  0.0045646 
  0.0062818 
  0.0068002 
   0.001262 
  0.0061127 
  0.0069724 
  0.0024748 
  0.0016123 
  0.0071449 
  0.0074797 
  0.0059442 
    0.00508 
  0.0033466 
  0.0038709 
  0.0076578 
  0.0043999 
   0.007663 
 0.00013925 
   0.007319 
  0.0057737 
  0.0028219 
  0.0019552 
  0.0049152 
  0.0076216 
   0.007494 
  0.0056019 
 0.00074951 
 0.00041921 
  0.0022996 
  0.0042149 
  0.0036863 
  0.0010876 
  0.0068105 
  0.0066348 
  0.0069824 
  0.0031738 
    0.00543 
  0.0064659 
  0.0071551 
  0.0076721 
  0.0078856 
  0.0078418 
  0.0014368 
  0.0047469 
  0.0073274 
  0.0062971 
  0.0026466 
  0.0017829 
  0.0061248 
  0.0074999 
  0.0078491 
  0.0040296 
  0.0052645 
  0.0035213 
  0.0080058 
   0.004565 
  0.0076754 
  0.0059543 
  0.0001298 
  0.0021278 
  0.0079626 
  0.0029907 
 0.00094098 
 0.00061841 
  0.0050832 
  0.0057829 
  0.0078529 
   0.008121 
    0.00699 
 0.00033259 
  0.0071647 
  0.0012633 
  0.0068203 
  0.0073375 
  0.0024743 
  0.0038633 
  0.0043808 
  0.0075101 
  0.0066515 
  0.0033364 
  0.0056072 
  0.0080356 
  0.0016023 
  0.0049131 
  0.0076815 
  0.0064793 
  0.0028219 
  0.0078542 
  0.0063081 
  0.0019472 
  0.0054318 
  0.0082085 
  0.0042007 
  0.0083163 
  0.0083395 
  0.0036835 
  0.0080305 
  0.0061364 
  0.0047308 
  0.0083614 
 0.00079026 
  0.0022916 
 0.00017559 
  0.0031641 
  0.0010993 
  0.0052545 
  0.0073447 
  0.0071743 
  0.0059595 
  0.0075178 
  0.0082051 
 0.00044359 
  0.0070061 
  0.0076936 
  0.0014297 
  0.0026368 
  0.0068324 
  0.0078682 
  0.0040278 
  0.0045496 
  0.0035001 
  0.0017682 
  0.0057857 
  0.0083792 
  0.0085109 
  0.0080356 
  0.0066627 
  0.0050792 
  0.0029833 
  0.0082097 
  0.0064905 
  0.0021143 
  0.0085603 
  0.0056057 
  0.0043682 
   0.003846 
 0.00081667 
  0.0063123 
  0.0083807 
  0.0049006 
  0.0086901 
  0.0024621 
  0.0075304 
  0.0077009 
 0.00015454 
  0.0012442 
  0.0033268 
    0.00787 
  0.0073603 
  0.0087161 
   0.007184 
  0.0054279 
  0.0061382 
  0.0085483 
  0.0080502 
  0.0015938 
  0.0087349 
  0.0070147 
  0.0028002 
  0.0082244 
  0.0041928 
  0.0047171 
  0.0019389 
 0.00042764 
   0.008391 
  0.0068423 
  0.0036648 
    0.00596 
  0.0087346 
  0.0052476 
   0.006667 
  0.0085592 
  0.0089117 
  0.0031439 
  0.0022826 
  0.0057809 
  0.0010822 
  0.0089338 
 0.00074738 
  0.0045433 
  0.0064889 
  0.0040116 
  0.0087375 
  0.0078882 
  0.0077113 
  0.0080575 
  0.0050649 
   0.002625 
  0.0090592 
   0.007541 
  0.0082292 
  0.0014232 
  0.0034911 
 0.00015619 
  0.0073649 
  0.0090932 
   0.008407 
  0.0063137 
  0.0056056 
  0.0017629 
  0.0089262 
  0.0071977 
  0.0091031 
  0.0085979 
  0.0029638 
  0.0020999 
   0.004358 
  0.0070224 
  0.0048907 
  0.0061398 
  0.0038348 
  0.0087675 
  0.0091211 
 0.00054409 
  0.0054058 
  0.0068457 
 0.00089297 
  0.0033039 
  0.0024435 
  0.0092832 
  0.0089309 
  0.0080677 
  0.0012441 
  0.0059511 
  0.0082385 
  0.0078947 
  0.0084131 
  0.0066688 
  0.0047045 
  0.0041698 
  0.0077252 
  0.0093281 
  0.0085937 
  0.0015879 
  0.0091065 
   0.002789 
  0.0052453 
  0.0094185 
  0.0036464 
  0.0075557 
   0.008773 
 0.00018191 
  0.0094563 
   0.006492 
  0.0019282 
  0.0057572 
  0.0073782 
  0.0092893 
  0.0089408 
 0.00036947 
  0.0094672 
  0.0031345 
  0.0045169 
  0.0022658 
  0.0072019 
  0.0091301 
   0.005054 
  0.0063201 
  0.0039974 
 0.00072545 
  0.0010605 
  0.0070235 
     0.0095 
   0.005585 
  0.0092797 
  0.0014028 
  0.0034719 
  0.0026082 
   0.008588 
  0.0082456 
  0.0084212 
  0.0096426 
   0.008083 
  0.0087706 
  0.0068473 
  0.0079137 
  0.0089326 
   0.006101 
  0.0094656 
  0.0017469 
  0.0048655 
  0.0043356 
  0.0077317 
  0.0029535 
  0.0054058 
  0.0090973 
   0.009778 
  0.0038046 
   0.002092 
 0.00017426 
  0.0097216 
  0.0066669 
  0.0092844 
  0.0098163 
   0.005909 
  0.0075586 
   0.009662 
 0.00050847 
  0.0098292 
  0.0032996 
  0.0073798 
  0.0024299 
  0.0046741 
  0.0094631 
   0.000895 
  0.0052097 
  0.0064976 
  0.0041682 
  0.0012338 
  0.0087701 
  0.0086047 
  0.0089499 
  0.0072024 
  0.0084407 
  0.0096352 
  0.0015643 
  0.0057387 
   0.002772 
  0.0036452 
  0.0082695 
  0.0091303 
   0.010002 
   0.009273 
  0.0080867 
  0.0099064 
  0.0094388 
  0.0062394 
  0.0018994 
  0.0070226 
  0.0079145 
  0.0050249 
  0.0045119 
  0.0098275 
  0.0031294 
  0.0055493 
   0.010042 
    0.01014 
  0.0022448 
  0.0060582 
  0.0040001 
  0.0077488 
  0.0096512 
  0.0068355 
 0.00035726 
 0.00018239 
   0.010179 
 0.00071168 
  0.0098012 
  0.0010575 
   0.010192 
   0.003476 
  0.0075585 
  0.0025948 
   0.010063 
  0.0043486 
  0.0048589 
  0.0091268 
  0.0089635 
  0.0013936 
  0.0087939 
  0.0066602 
  0.0053772 
  0.0086161 
  0.0093088 
   0.010192 
  0.0073791 
  0.0017232 
  0.0084446 
  0.0099403 
  0.0094713 
  0.0059019 
  0.0095917 
   0.002939 
  0.0038217 
   0.008273 
   0.010367 
  0.0063825 
  0.0098279 
  0.0020556 
  0.0072041 
   0.008104 
   0.010401 
  0.0052046 
   0.010301 
   0.004685 
  0.0024026 
   0.010187 
  0.0033068 
  0.0057306 
 0.00052921 
   0.010012 
 0.00087135 
  0.0041462 
   0.010505 
   0.007936 
  0.0062413 
 0.00017212 
   0.010543 
  0.0012138 
   0.010174 
  0.0070007 
   0.007732 
  0.0091561 
   0.010561 
  0.0036525 
  0.0094913 
  0.0093411 
  0.0027454 
  0.0089738 
   0.006758 
   0.001556 
  0.0044809 
  0.0050195 
   0.009945 
   0.010289 
  0.0088043 
  0.0096756 
   0.010439 
  0.0098161 
  0.0055568 
  0.0086202 
     0.0019 
    0.01058 
  0.0075542 
  0.0060831 
  0.0084402 
  0.0039833 
   0.003091 
   0.002222 
   0.010734 
   0.010165 
  0.0065891 
  0.0082773 
  0.0073748 
 0.00038669 
  0.0048225 
 0.00071223 
  0.0042616 
   0.010751 
   0.005357 
   0.010667 
  0.0025334 
   0.003476 
   0.010345 
  0.0010379 
  0.0058978 
  0.0080943 
    0.01054 
    0.01087 
   0.007191 
  0.0064351 
  0.0013779 
  0.0098614 
   0.010521 
   0.009334 
    0.00952 
 0.00019549 
  0.0096919 
   0.010908 
   0.009159 
  0.0079109 
   0.010006 
  0.0038157 
  0.0017293 
   0.010924 
  0.0089826 
  0.0069344 
  0.0028867 
  0.0046333 
   0.010302 
  0.0051678 
  0.0087957 
   0.010816 
  0.0057139 
  0.0020648 
  0.0062391 
   0.007733 
   0.010936 
  0.0086328 
   0.010449 
  0.0041467 
  0.0024041 
 0.00043757 
  0.0067782 
   0.011098 
   0.008461 
  0.0075518 
 0.00087439 
  0.0032773 
  0.0049797 
  0.0012096 
   0.011117 
  0.0073032 
  0.0027232 
  0.0055092 
    0.01068 
  0.0082766 
  0.0036251 
   0.011059 
  0.0098966 
  0.0060859 
  0.0097267 
   0.010943 
   0.010049 
  0.0095228 
  0.0015605 
   0.010193 
   0.011236 
  0.0065946 
   0.010889 
   0.009346 
  0.0030087 
  0.0091556 
   0.010459 
  0.0002129 
   0.011274 
  0.0080873 
  0.0019006 
  0.0039871 
  0.0059022 
   0.011288 
  0.0071282 
    0.01063 
   0.008989 
  0.0044879 
  0.0053299 
  0.0022447 
    0.01114 
  0.0088026 
  0.0079068 
  0.0064395 
   0.010814 
   0.011309 
 0.00038726 
 0.00070549 
  0.0025894 
  0.0048464 
  0.0086359 
   0.011004 
   0.001047 
  0.0069447 
   0.011463 
  0.0077229 
  0.0099401 
  0.0013898 
   0.010097 
   0.010281 
  0.0062463 
  0.0029237 
   0.010452 
   0.011478 
  0.0097092 
  0.0074805 
  0.0056729 
  0.0084504 
  0.0051804 
   0.010628 
  0.0035794 
  0.0095089 
  0.0017381 
  0.0032486 
  0.0043604 
  0.0067879 
   0.011602 
  0.0093481 
   0.011184 
   0.010815 
   0.011481 
  0.0091414 
  0.0020747 
  0.0082608 
   0.011299 
    0.01164 
 0.00023986 
   0.010986 
  0.0060527 
  0.0073027 
   0.011653 
   0.003963 
  0.0024165 
 0.00051783 
  0.0089915 
  0.0047135 
    0.01116 
  0.0080801 
  0.0055178 
   0.011487 
   0.006598 
   0.011664 
  0.0012316 
 0.00089535 
  0.0027625 
  0.0050516 
  0.0088186 
   0.011333 
   0.010291 
   0.010121 
   0.010469 
  0.0015558 
  0.0071379 
    0.01165 
   0.010644 
    0.01183 
  0.0058613 
  0.0078984 
   0.010831 
  0.0098625 
    0.00865 
   0.003103 
  0.0064029 
   0.011842 
   0.011525 
  0.0053938 
   0.011008 
   0.007663 
  0.0097007 
  0.0019013 
  0.0034414 
   0.009502 
  0.0084429 
  0.0043198 
   0.011178 
  0.0069469 
    0.01197 
  0.0022436 
   0.011855 
   0.011686 
  0.0093473 
   0.012007 
   0.011349 
 0.00030672 
 0.00042015 
  0.0037814 
 0.00071423 
  0.0074924 
  0.0062135 
    0.01202 
  0.0025906 
  0.0082949 
  0.0010663 
  0.0046763 
  0.0091683 
   0.011523 
  0.0057281 
  0.0013912 
   0.011881 
  0.0067588 
   0.012031 
   0.010476 
   0.010655 
  0.0029352 
   0.004115 
   0.010301 
   0.010834 
  0.0080954 
  0.0017237 
  0.0052609 
   0.008999 
   0.011705 
  0.0032797 
   0.011015 
   0.005006 
  0.0072992 
   0.011195 
   0.010056 
   0.002086 
   0.012197 
  0.0060335 
  0.0088046 
   0.012054 
  0.0098462 
    0.01137 
  0.0044562 
   0.011883 
   0.006567 
    0.01221 
  0.0096614 
  0.0055803 
   0.007854 
  0.0036153 
  0.0024371 
   0.011543 
  0.0094871 
  0.0071154 
  0.0086424 
   0.012338 
   0.012224 
   0.012064 
  0.0027869 
   0.011717 
   0.012375 
  0.0039506 
  0.0093295 
  0.0084465 
  0.0063841 
   0.012388 
  0.0076564 
   0.011895 
  0.0047765 
  0.0059094 
  0.0031514 
   0.010841 
   0.010662 
   0.011021 
  0.0053388 
   0.012246 
   0.010485 
  0.0069255 
   0.011202 
   0.012401 
  0.0091654 
   0.011382 
  0.0042558 
  0.0082508 
   0.010167 
   0.012074 
    0.01156 
   0.003483 
   0.007477 
  0.0089721 
  0.0062431 
   0.010023 
   0.012566 
   0.011736 
    0.01242 
  0.0098429 
   0.012253 
   0.004557 
  0.0067378 
    0.01258 
   0.011911 
  0.0080861 
  0.0038255 
  0.0051232 
  0.0096823 
  0.0088074 
  0.0057104 
  0.0072813 
   0.012088 
   0.012594 
   0.012433 
   0.012707 
   0.012743 
  0.0095195 
   0.010538 
  0.0086067 
  0.0041503 
   0.011027 
   0.011207 
   0.010851 
   0.011388 
   0.012758 
   0.012266 
  0.0078231 
  0.0065611 
  0.0093141 
   0.011569 
  0.0048869 
   0.012612 
   0.010363 
   0.011749 
  0.0070926 
   0.012772 
  0.0063178 
   0.012444 
   0.010207 
   0.011927 
  0.0084471 
  0.0044732 
  0.0054824 
  0.0076422 
  0.0091474 
   0.012104 
   0.012936 
   0.010039 
   0.012788 
  0.0060683 
   0.012623 
   0.012281 
  0.0089608 
  0.0069056 
    0.01295 
  0.0082514 
   0.009848 
  0.0048002 
  0.0074556 
   0.012458 
   0.012802 
   0.012965 
   0.013077 
  0.0096767 
   0.011392 
    0.01121 
   0.011574 
   0.011027 
   0.011756 
   0.013112 
  0.0058412 
  0.0087889 
   0.010848 
   0.011937 
   0.012637 
  0.0094757 
  0.0066774 
  0.0080772 
   0.013129 
    0.01055 
   0.012117 
  0.0052337 
    0.01298 
  0.0072645 
   0.010384 
   0.013143 
   0.012295 
  0.0086084 
   0.012815 
  0.0093216 
   0.012474 
  0.0078885 
   0.010209 
  0.0064812 
   0.013158 
   0.013307 
   0.012994 
  0.0055843 
   0.012651 
  0.0091375 
   0.010031 
  0.0070692 
   0.013322 
  0.0084361 
  0.0098353 
  0.0061842 
   0.012829 
   0.011575 
   0.011759 
   0.011391 
   0.011942 
   0.013172 
  0.0077195 
   0.011206 
   0.012124 
   0.013336 
   0.013448 
   0.011023 
   0.012306 
  0.0089637 
  0.0082515 
   0.013483 
   0.013008 
   0.010735 
  0.0059105 
  0.0096445 
   0.012486 
   0.013502 
   0.013351 
   0.010571 
   0.012665 
  0.0087865 
  0.0075346 
   0.013516 
   0.013187 
  0.0068864 
   0.012844 
   0.010418 
  0.0095069 
  0.0080782 
  0.0062779 
    0.01353 
   0.013683 
   0.013023 
   0.013365 
    0.01019 
   0.009321 
  0.0099965 
  0.0086114 
   0.011943 
   0.013695 
   0.011758 
   0.012128 
   0.011572 
   0.012311 
  0.0073584 
   0.013201 
   0.011385 
   0.012494 
  0.0078976 
   0.013544 
     0.0112 
   0.012676 
   0.013709 
   0.013825 
  0.0091423 
  0.0066563 
    0.01338 
   0.011006 
  0.0084313 
   0.012856 
   0.013869 
   0.013874 
  0.0098805 
   0.010824 
   0.013036 
   0.013724 
  0.0071908 
   0.013559 
  0.0089655 
  0.0077207 
   0.013889 
   0.010641 
   0.013216 
  0.0096838 
  0.0082555 
  0.0069637 
   0.010452 
   0.013395 
   0.013903 
   0.013738 
   0.012126 
   0.012312 
   0.014051 
    0.01194 
   0.012497 
  0.0095041 
   0.010225 
   0.011754 
   0.012681 
  0.0087977 
   0.014069 
   0.011568 
   0.012865 
   0.013574 
  0.0075543 
   0.011383 
   0.013047 
  0.0080734 
   0.013917 
   0.014084 
   0.011193 
   0.013228 
   0.014211 
  0.0093296 
   0.013753 
  0.0073479 
  0.0086129 
   0.011007 
   0.013409 
   0.014249 
   0.010126 
   0.014098 
   0.014295 
   0.013932 
   0.010822 
   0.009159 
   0.013589 
   0.014264 
  0.0079104 
  0.0084364 
   0.012496 
   0.012309 
   0.012682 
   0.010638 
   0.013768 
   0.012123 
   0.012868 
   0.014278 
   0.014112 
  0.0077147 
   0.011936 
   0.013052 
   0.014434 
  0.0096788 
    0.01175 
   0.013236 
   0.010474 
   0.010036 
  0.0089706 
   0.014446 
   0.013948 
   0.011563 
   0.013419 
  0.0082656 
   0.014292 
   0.011375 
   0.013601 
   0.014459 
  0.0095162 
   0.014127 
   0.014582 
   0.011189 
   0.013782 
  0.0087942 
  0.0080731 
   0.014628 
   0.014473 
    0.01468 
   0.011005 
   0.014307 
   0.013962 
  0.0093281 
   0.014641 
   0.012679 
   0.012866 
   0.012492 
   0.013053 
   0.012304 
   0.013239 
   0.010529 
   0.010064 
   0.010827 
   0.014142 
   0.012117 
   0.013424 
  0.0086323 
   0.014487 
   0.014654 
    0.01193 
   0.013609 
   0.014812 
  0.0098755 
  0.0091637 
   0.014322 
   0.011743 
  0.0084202 
   0.013792 
   0.014823 
   0.011556 
   0.013974 
   0.014667 
   0.014836 
  0.0089904 
   0.014502 
  0.0096912 
    0.01496 
   0.011371 
   0.014156 
   0.010422 
   0.015006 
   0.014849 
   0.011187 
    0.01305 
   0.014337 
   0.012862 
   0.013238 
   0.014682 
   0.015057 
   0.012674 
   0.013425 
  0.0095217 
  0.0088158 
   0.010242 
   0.012486 
   0.013612 
   0.015018 
   0.012298 
   0.013797 
   0.010997 
   0.014517 
   0.012111 
   0.013982 
   0.014863 
   0.015031 
   0.010048 
   0.015188 
    0.00934 
   0.011924 
   0.014166 
   0.010795 
   0.014698 
   0.015201 
   0.011737 
   0.014349 
   0.015044 
  0.0091475 
   0.015213 
   0.014878 
  0.0098776 
   0.011552 
   0.014531 
   0.010592 
   0.015337 
   0.013233 
   0.013421 
   0.013044 
    0.01361 
   0.012855 
   0.011365 
   0.013798 
   0.015383 
   0.014713 
   0.015226 
   0.015059 
   0.012667 
   0.013985 