# vtk DataFile Version 2.0
Steady-state stabilized finite element formulation for the 2D incopmpressible Navier Stokes equations
ASCII

DATASET UNSTRUCTURED_GRID
POINTS 8230 double
    2.1999     0.40996           0 
    2.1879     0.40996           0 
    2.1999      0.3979           0 
    2.1817     0.39949           0 
    2.1759     0.40996           0 
    2.1999     0.38584           0 
    2.1877     0.38909           0 
    2.1757      0.3891           0 
    2.1697      0.3995           0 
    2.1639     0.40996           0 
    2.1999     0.37378           0 
    2.1827     0.37789           0 
    2.1637     0.38911           0 
    2.1697     0.37872           0 
    2.1577     0.39951           0 
    2.1882     0.36805           0 
    2.1518     0.40996           0 
    2.1757     0.36832           0 
    2.1999     0.36172           0 
    2.1577     0.37873           0 
    2.1517     0.38912           0 
    2.1827     0.35856           0 
    2.1637     0.36833           0 
    2.1457     0.39952           0 
    2.1398     0.40996           0 
    2.1697     0.35793           0 
    2.1999     0.34967           0 
    2.1457     0.37874           0 
    2.1877     0.34752           0 
    2.1517     0.36834           0 
    2.1397     0.38913           0 
    2.1757     0.34753           0 
    2.1577     0.35794           0 
    2.1337     0.39952           0 
    2.1278     0.40996           0 
    2.1637     0.34754           0 
    2.1999     0.33761           0 
    2.1397     0.36835           0 
    2.1337     0.37874           0 
    2.1817     0.33714           0 
    2.1457     0.35795           0 
    2.1277     0.38914           0 
    2.1697     0.33715           0 
    2.1517     0.34755           0 
    2.1217     0.39953           0 
    2.1277     0.36835           0 
    2.1877     0.32674           0 
    2.1158     0.40996           0 
    2.1577     0.33716           0 
    2.1337     0.35796           0 
    2.1217     0.37875           0 
    2.1999     0.32555           0 
    2.1757     0.32675           0 
    2.1397     0.34756           0 
    2.1157     0.38915           0 
    2.1637     0.32676           0 
    2.1457     0.33717           0 
    2.1097     0.39955           0 
    2.1217     0.35797           0 
    2.1157     0.36837           0 
    2.1277     0.34757           0 
    2.1097     0.37877           0 
    2.1827     0.31588           0 
    2.1038     0.40996           0 
    2.1517     0.32677           0 
    2.1999     0.31349           0 
    2.1697     0.31636           0 
    2.1337     0.33718           0 
    2.1037     0.38916           0 
    2.1577     0.31637           0 
    2.1397     0.32678           0 
    2.0977     0.39956           0 
    2.1097     0.35798           0 
    2.1876     0.30595           0 
    2.1037     0.36838           0 
    2.1157     0.34759           0 
    2.1756     0.30597           0 
    2.1217     0.33719           0 
    2.0977     0.37878           0 
    2.1457     0.31638           0 
    2.0917     0.40996           0 
    2.1999     0.30143           0 
    2.1636     0.30598           0 
    2.1277     0.32679           0 
    2.0917     0.38917           0 
    2.1516     0.30599           0 
    2.1337     0.31639           0 
    2.0857     0.39957           0 
    2.0977       0.358           0 
    2.1037      0.3476           0 
    2.1853     0.29519           0 
    2.1097      0.3372           0 
    2.0917     0.36839           0 
    2.1696     0.29558           0 
    2.1157     0.32681           0 
    2.0857     0.37878           0 
    2.0797     0.40996           0 
      2.14     0.30554           0 
    2.1999     0.28937           0 
    2.1576     0.29559           0 
    2.1217     0.31641           0 
    2.0797     0.38917           0 
    2.0917     0.34761           0 
    2.0977     0.33721           0 
    2.0857       0.358           0 
    2.1456      0.2956           0 
    2.0737     0.39956           0 
    2.1288     0.30467           0 
    2.1756     0.28518           0 
    2.1037     0.32681           0 
    2.0797      0.3684           0 
    2.1884     0.28284           0 
     2.165     0.28675           0 
    2.1097     0.31642           0 
    2.0737     0.37879           0 
    2.0677     0.40996           0 
    2.1999     0.27731           0 
    2.1356     0.29292           0 
    2.1157     0.30602           0 
    2.0677     0.38916           0 
    2.0857     0.33722           0 
    2.0797     0.34761           0 
    2.1909     0.27428           0 
     2.179     0.27538           0 
    2.0917     0.32682           0 
    2.0737     0.35801           0 
    2.1551     0.28091           0 
    2.1671     0.27651           0 
    2.0677      0.3684           0 
    2.0977     0.31643           0 
    2.0617     0.39955           0 
    2.1261     0.29079           0 
     2.142     0.28102           0 
    2.1037     0.30603           0 
    2.0617     0.37878           0 
    2.0557     0.40996           0 
    2.1999     0.26525           0 
    2.0557     0.38918           0 
    2.0737     0.33723           0 
    2.1142     0.29186           0 
    2.0797     0.32683           0 
    2.0677     0.34762           0 
     2.184     0.26448           0 
    2.1721     0.26558           0 
    2.1312      0.2799           0 
    2.0857     0.31644           0 
    2.0617     0.35802           0 
    2.1601     0.26675           0 
     2.095     0.30421           0 
    2.0557     0.36843           0 
    2.0497     0.39957           0 
    2.1482     0.26787           0 
    2.1192     0.28098           0 
    2.1005     0.29322           0 
    2.0497     0.37879           0 
    2.1362     0.26901           0 
    2.0617     0.33724           0 
    2.0677     0.32684           0 
    2.0437     0.40997           0 
     2.189     0.25358           0 
    2.1999      0.2532           0 
    2.1771      0.2547           0 
    2.0737     0.31645           0 
    2.0557     0.34764           0 
     2.083     0.30471           0 
    2.0437     0.38918           0 
    2.1073     0.28206           0 
    2.1651     0.25584           0 
    2.0497     0.35804           0 
    2.1243     0.27008           0 
    2.1532     0.25698           0 
    2.0886     0.29408           0 
    2.0437     0.36844           0 
    2.0377     0.39957           0 
    2.1412     0.25812           0 
    2.1123     0.27117           0 
    2.0377     0.37878           0 
    2.0937     0.28338           0 
    2.1293     0.25922           0 
    2.0557     0.32685           0 
    2.0497     0.33726           0 
    2.0617     0.31646           0 
     2.182     0.24376           0 
    2.1701     0.24494           0 
    2.0677     0.30606           0 
    2.0437     0.34766           0 
    2.0316     0.40997           0 
    2.1999     0.24114           0 
    2.0766     0.29458           0 
    2.1581     0.24604           0 
    2.0317     0.38917           0 
    2.0377     0.35806           0 
     2.099     0.27272           0 
    2.1174     0.26031           0 
    2.1462     0.24723           0 
    2.0823     0.28403           0 
    2.0317     0.36846           0 
    2.0258     0.39959           0 
    2.1343     0.24831           0 
    2.1046      0.2621           0 
    2.0258     0.37886           0 
    2.0437     0.32688           0 
    2.0497     0.31648           0 
    2.0874     0.27328           0 
    2.0647     0.29522           0 
     2.187     0.23283           0 
     2.175     0.23402           0 
    2.0377     0.33727           0 
    2.0557     0.30607           0 
    2.1225     0.24943           0 
    2.1632     0.23515           0 
    2.0317     0.34767           0 
    2.0703     0.28468           0 
    2.0196     0.40997           0 
    2.1512     0.23624           0 
    2.1999     0.22908           0 
    2.0198     0.38923           0 
    2.0257     0.35808           0 
    2.1101     0.25147           0 
    2.0926     0.26258           0 
    2.1393     0.23743           0 
    2.0758     0.27404           0 
    2.0197     0.36849           0 
    2.1274     0.23849           0 
    2.0527     0.29567           0 
    2.0138      0.3996           0 
    2.0376     0.31653           0 
    2.1904     0.22286           0 
    2.0436     0.30613           0 
    2.0316     0.32691           0 
      2.18     0.22313           0 
    2.0981     0.25196           0 
    2.1681     0.22422           0 
    2.0138     0.37884           0 
    2.0257     0.33729           0 
    2.0583     0.28507           0 
     2.081     0.26324           0 
    2.1562     0.22543           0 
    2.1154      0.2397           0 
    2.0197     0.34769           0 
    2.1442      0.2265           0 
    2.0638      0.2746           0 
    2.0076     0.40997           0 
    2.1999     0.21702           0 
    2.0137     0.35809           0 
    2.0078     0.38923           0 
    2.0862     0.25243           0 
    2.1323     0.22773           0 
    2.1035     0.24073           0 
     2.069     0.26411           0 
    2.0077     0.36848           0 
    2.0463      0.2855           0 
    2.0316     0.30617           0 
    2.0256      0.3165           0 
    2.1204     0.22877           0 
    2.1874     0.21215           0 
    2.0018     0.39964           0 
    2.1731     0.21334           0 
    2.0197     0.32691           0 
    2.0375     0.29576           0 
    2.1612     0.21453           0 
    2.0916     0.24193           0 
    2.0137     0.33731           0 
    2.0018     0.37888           0 
    2.0743     0.25332           0 
    2.1492     0.21563           0 
    2.1084     0.23003           0 
    2.0077     0.34772           0 
    2.0495     0.27498           0 
    2.1373     0.21684           0 
    1.9956     0.40997           0 
    2.0017     0.35809           0 
[...]
POINT_DATA 8230
SCALARS pressure double
LOOKUP_TABLE default
 0.00031838 
 0.00043805 
 0.00025727 
 0.00055817 
 0.00071991 
  0.0002182 
 0.00041661 
 0.00072858 
 0.00089313 
  0.0010549 
 0.00015018 
 0.00052075 
  0.0010679 
 0.00090123 
  0.0012343 
 0.00036126 
  0.0013992 
 0.00072927 
  0.0001392 
  0.0012446 
  0.0014124 
 0.00050686 
  0.0010731 
  0.0015795 
  0.0017464 
 0.00089244 
 0.00019064 
  0.0015902 
 0.00038308 
  0.0014192 
  0.0017587 
 0.00071033 
  0.0012433 
  0.0019266 
  0.0020951 
  0.0010622 
 0.00018875 
  0.0017672 
   0.001938 
 0.00053404 
  0.0015933 
  0.0021068 
 0.00088168 
  0.0014157 
  0.0022754 
  0.0021164 
 0.00038311 
  0.0024451 
  0.0012361 
  0.0019434 
  0.0022869 
 0.00019694 
 0.00070662 
  0.0017684 
  0.0024563 
  0.0010597 
  0.0015901 
  0.0026255 
  0.0022941 
  0.0024665 
  0.0021202 
  0.0026372 
 0.00050498 
  0.0027965 
  0.0014124 
 0.00014201 
 0.00088777 
  0.0019451 
   0.002807 
  0.0012424 
   0.001764 
   0.002977 
  0.0026456 
 0.00037105 
  0.0028177 
  0.0024722 
 0.00072427 
  0.0022983 
  0.0029886 
  0.0015889 
  0.0031492 
 0.00019498 
  0.0010691 
   0.002124 
  0.0031587 
  0.0014228 
  0.0019351 
  0.0033293 
  0.0029979 
  0.0028248 
 0.00042652 
  0.0026508 
  0.0031699 
 0.00089944 
  0.0024788 
  0.0033411 
  0.0035025 
  0.0017452 
 0.00018495 
  0.0012495 
    0.00231 
  0.0035114 
  0.0031781 
  0.0030039 
  0.0033509 
  0.0015817 
  0.0036826 
  0.0020965 
 0.00067203 
  0.0028284 
  0.0035229 
 0.00034742 
  0.0010219 
  0.0026607 
  0.0036946 
  0.0038569 
  0.0001656 
  0.0018783 
  0.0024858 
  0.0038653 
  0.0033588 
  0.0035317 
 0.00029384 
 0.00061461 
  0.0031826 
  0.0037049 
  0.0013266 
 0.00096727 
  0.0038767 
  0.0030049 
  0.0040367 
  0.0021818 
   0.001697 
   0.002803 
  0.0040488 
   0.004212 
 0.00013273 
  0.0042203 
  0.0037133 
  0.0025385 
  0.0035417 
  0.0038864 
 0.00048012 
 0.00083404 
  0.0020459 
  0.0033665 
  0.0040596 
  0.0011694 
  0.0031114 
  0.0042319 
  0.0043919 
  0.0015272 
  0.0023779 
  0.0029348 
  0.0044038 
  0.0018946 
  0.0040682 
  0.0038945 
  0.0045683 
 0.00036168 
 0.00015313 
 0.00068144 
  0.0037224 
   0.004242 
  0.0034515 
   0.004576 
   0.002738 
  0.0010299 
  0.0044154 
  0.0022333 
   0.001382 
  0.0032893 
  0.0045884 
  0.0047477 
  0.0017431 
  0.0025896 
    0.00476 
  0.0031323 
  0.0020887 
  0.0042499 
  0.0044244 
  0.0040755 
 0.00054223 
 0.00088898 
  0.0038998 
  0.0045985 
  0.0049254 
 0.00012928 
  0.0036295 
  0.0012405 
  0.0049327 
  0.0047723 
  0.0029745 
  0.0024434 
  0.0015946 
  0.0034782 
  0.0049456 
  0.0051038 
  0.0019455 
  0.0028165 
  0.0051178 
  0.0046071 
  0.0044331 
   0.003326 
  0.0039914 
 0.00040861 
 0.00075277 
  0.0047813 
  0.0042602 
  0.0022953 
  0.0010991 
  0.0049559 
  0.0038308 
  0.0052844 
  0.0014491 
 0.00013405 
  0.0052906 
  0.0051303 
  0.0026558 
  0.0031713 
  0.0018018 
   0.003674 
  0.0053038 
  0.0021561 
  0.0043594 
  0.0054622 
  0.0047912 
  0.0003189 
  0.0046205 
  0.0049664 
 0.00061712 
  0.0030149 
 0.00095904 
  0.0054765 
  0.0051404 
  0.0041824 
  0.0035212 
  0.0013076 
   0.002501 
  0.0053146 
   0.001658 
  0.0040292 
  0.0056439 
 0.00012546 
  0.0054889 
  0.0056499 
  0.0033674 
  0.0020114 
  0.0028576 
  0.0038781 
  0.0056631 
  0.0045474 
  0.0049759 
    0.00515 
  0.0023637 
 0.00040041 
   0.005822 
  0.0008159 
  0.0053254 
  0.0048018 
  0.0011634 
  0.0032128 
  0.0054996 
  0.0058363 
  0.0037233 
   0.001514 
  0.0027159 
  0.0056745 
  0.0044516 
  0.0018616 
   0.006005 
  0.0058489 
  0.0042777 
 0.00012231 
  0.0060103 
  0.0022157 
  0.0035696 
  0.0030686 
  0.0053357 
  0.0060236 
  0.0041039 
  0.0051614 
  0.0055103 
 0.00067489 
 0.00034121 
  0.0010204 
  0.0056853 
  0.0025763 
  0.0049889 
  0.0013701 
  0.0061835 
  0.0058595 
  0.0048147 
  0.0034098 
  0.0017261 
  0.0061976 
   0.003912 
  0.0060356 
  0.0046392 
  0.0029196 
  0.0020598 
  0.0063681 
  0.0062104 
  0.0044633 
 0.00011005 
  0.0063724 
   0.002439 
  0.0037594 
  0.0055199 
   0.005696 
  0.0032718 
 0.00052624 
 0.00087169 
   0.005347 
   0.005871 
  0.0012219 
  0.0063853 
  0.0042898 
  0.0051714 
   0.006046 
  0.0015738 
  0.0027952 
  0.0065466 
   0.006221 
  0.0049974 
  0.0019185 
  0.0036206 
  0.0065607 
  0.0041152 
  0.0063974 
  0.0048224 
  0.0065732 
  0.0046481 
  0.0067333 
  0.0032117 
  0.0058808 
 0.00034762 
  0.0067365 
 0.00011454 
  0.0057065 
  0.0060572 
  0.0035045 
 0.00072523 
  0.0026479 
   0.001075 
  0.0039778 
   0.005532 
  0.0062322 
  0.0023622 
  0.0014288 
  0.0053561 
  0.0064082 
  0.0067482 
  0.0044752 
  0.0017732 
  0.0029989 
  0.0065835 
  0.0051822 
  0.0069127 
  0.0038217 
  0.0069253 
  0.0043081 
  0.0067606 
   0.005007 
  0.0022066 
  0.0062416 
  0.0060677 
 0.00057754 
   0.006937 
  0.0058923 
  0.0048323 
   0.006419 
 0.00092689 
  0.0036281 
  0.0071023 
  0.0012799 
   0.005717 
  0.0071032 
  0.0065945 
 0.00011229 
  0.0041405 
   0.001626 
   0.002542 
  0.0067709 
  0.0055416 
  0.0071113 
  0.0046614 
  0.0034162 
  0.0028666 
  0.0069471 
  0.0053679 
  0.0020222 
  0.0072824 
  0.0039648 
  0.0071248 
  0.0072913 
   0.005192 
  0.0044918 
  0.0064281 
  0.0032369 
  0.0066046 
  0.0062542 
  0.0023679 
 0.00039222 
 0.00078409 
  0.0011311 
  0.0067809 
  0.0060762 
  0.0014809 
  0.0073014 
  0.0050163 
  0.0059015 
  0.0069567 
  0.0037945 
  0.0074762 
  0.0074722 
 0.00012345 
  0.0043205 
  0.0027051 
  0.0071345 
  0.0057288 
  0.0018391 
  0.0048484 
  0.0074727 
  0.0073114 
  0.0055531 
  0.0036113 
  0.0021856 
 0.00028973 
  0.0076585 
  0.0030669 
  0.0009487 
  0.0041517 
 0.00061517 
  0.0074894 
  0.0053764 
  0.0067916 
  0.0076559 
  0.0066153 
  0.0046762 
  0.0064363 
  0.0069675 
  0.0012929 
   0.006263 
   0.007144 
  0.0025352 
  0.0016513 
  0.0073208 
  0.0076636 
  0.0060903 
  0.0052043 
  0.0034275 
  0.0039653 
  0.0078454 
  0.0045071 
  0.0078512 
 0.00014069 
  0.0074992 
  0.0059156 
  0.0028904 
  0.0020025 
  0.0050353 
  0.0078084 
  0.0076785 
  0.0057393 
 0.00076794 
 0.00042965 
  0.0023553 
  0.0043175 
   0.003776 
   0.001114 
  0.0069781 
  0.0067981 
  0.0071543 
  0.0032505 
  0.0055629 
   0.006625 
  0.0073313 
  0.0078611 
   0.008079 
  0.0080345 
  0.0014715 
  0.0048629 
  0.0075079 
  0.0064519 
  0.0027106 
  0.0018259 
  0.0062752 
  0.0076847 
  0.0080425 
  0.0041276 
  0.0053933 
  0.0036065 
  0.0082021 
  0.0046762 
  0.0078645 
  0.0061004 
 0.00013103 
  0.0021791 
   0.008158 
  0.0030628 
 0.00096385 
 0.00063331 
  0.0052072 
  0.0059246 
  0.0080465 
  0.0083203 
  0.0071621 
 0.00034031 
  0.0073412 
  0.0012936 
  0.0069882 
  0.0075183 
  0.0025339 
  0.0039572 
  0.0044873 
  0.0076952 
  0.0068152 
  0.0034169 
  0.0057443 
  0.0082338 
  0.0016408 
  0.0050329 
  0.0078708 
  0.0066385 
  0.0028898 
  0.0080478 
  0.0064629 
  0.0019939 
  0.0055644 
  0.0084107 
  0.0043024 
  0.0085209 
  0.0085441 
  0.0037725 
  0.0082285 
  0.0062868 
  0.0048458 
  0.0085665 
  0.0008093 
  0.0023466 
 0.00017874 
  0.0032404 
  0.0011254 
  0.0053825 
  0.0075256 
  0.0073509 
  0.0061053 
   0.007703 
  0.0084074 
 0.00045416 
  0.0071785 
  0.0078833 
  0.0014639 
  0.0027001 
  0.0070005 
  0.0080622 
  0.0041253 
  0.0046598 
  0.0035843 
  0.0018105 
   0.005927 
  0.0085858 
  0.0087202 
  0.0082337 
  0.0068264 
  0.0052027 
  0.0030549 
  0.0084121 
  0.0066498 
  0.0021648 
  0.0087711 
  0.0057424 
  0.0044737 
  0.0039387 
 0.00083613 
  0.0064669 
  0.0085873 
  0.0050194 
  0.0089033 
   0.002521 
  0.0077159 
  0.0078907 
 0.00015735 
  0.0012737 
  0.0034067 
   0.008064 
  0.0075416 
  0.0089301 
  0.0073607 
  0.0055598 
  0.0062883 
   0.008759 
  0.0082487 
  0.0016318 
    0.00895 
  0.0071872 
  0.0028671 
  0.0084272 
  0.0042939 
  0.0048311 
  0.0019851 
 0.00043752 
   0.008598 
  0.0070102 
  0.0037528 
  0.0061053 
  0.0089497 
  0.0053749 
  0.0068303 
  0.0087702 
  0.0091307 
  0.0032192 
  0.0023369 
  0.0059216 
  0.0011077 
   0.009154 
   0.000765 
  0.0046529 
  0.0066475 
   0.004108 
  0.0089531 
  0.0080826 
  0.0079013 
  0.0082562 
  0.0051876 
  0.0026875 
  0.0092816 
  0.0077266 
  0.0084322 
  0.0014569 
  0.0035747 
 0.00015926 
  0.0075459 
  0.0093166 
  0.0086144 
  0.0064678 
  0.0057416 
  0.0018047 
  0.0091464 
  0.0073745 
  0.0093271 
  0.0088102 
  0.0030344 
  0.0021497 
  0.0044628 
  0.0071946 
  0.0050087 
  0.0062893 
  0.0039267 
  0.0089839 
  0.0093462 
 0.00055676 
  0.0055367 
  0.0070132 
 0.00091386 
  0.0033828 
  0.0025016 
  0.0095116 
  0.0091513 
  0.0082666 
  0.0012734 
  0.0060956 
  0.0084417 
  0.0080892 
  0.0086206 
  0.0068316 
  0.0048176 
  0.0042697 
  0.0079153 
  0.0095582 
  0.0088057 
  0.0016254 
   0.009331 
  0.0028553 
  0.0053719 
  0.0096498 
  0.0037334 
  0.0077413 
  0.0089897 
 0.00018587 
  0.0096887 
  0.0066502 
  0.0019738 
  0.0058967 
  0.0075593 
  0.0095186 
  0.0091613 
 0.00037793 
  0.0097004 
  0.0032091 
  0.0046252 
  0.0023195 
  0.0073782 
  0.0093558 
  0.0051756 
  0.0064736 
   0.004093 
 0.00074222 
  0.0010853 
  0.0071951 
  0.0097344 
  0.0057201 
  0.0095087 
  0.0014358 
  0.0035546 
    0.00267 
  0.0087999 
  0.0084488 
  0.0086291 
    0.00988 
  0.0082821 
  0.0089871 
  0.0070142 
  0.0081081 
  0.0091531 
  0.0062488 
  0.0096996 
  0.0017881 
  0.0049823 
  0.0044393 
  0.0079215 
  0.0030236 
  0.0055361 
  0.0093215 
   0.010018 
  0.0038952 
  0.0021414 
 0.00017804 
  0.0099615 
   0.006829 
  0.0095137 
   0.010058 
  0.0060516 
  0.0077439 
   0.009901 
 0.00052012 
   0.010072 
   0.003378 
  0.0075602 
  0.0024874 
   0.004786 
  0.0096966 
 0.00091584 
  0.0053348 
  0.0066551 
  0.0042678 
  0.0012626 
  0.0089865 
   0.008817 
  0.0091709 
  0.0073781 
  0.0086487 
  0.0098731 
  0.0016011 
  0.0058771 
  0.0028376 
  0.0037319 
  0.0084731 
  0.0093561 
   0.010248 
   0.009502 
  0.0082853 
   0.010152 
  0.0096722 
  0.0063903 
  0.0019441 
  0.0071934 
  0.0081085 
  0.0051452 
  0.0046196 
    0.01007 
  0.0032036 
  0.0056826 
    0.01029 
    0.01039 
  0.0022979 
  0.0062042 
  0.0040952 
  0.0079384 
  0.0098899 
  0.0070014 
 0.00036524 
 0.00018617 
    0.01043 
 0.00072815 
   0.010044 
  0.0010821 
   0.010444 
  0.0035585 
  0.0077429 
  0.0026561 
   0.010312 
  0.0044523 
   0.004975 
  0.0093522 
  0.0091846 
  0.0014262 
  0.0090107 
  0.0068215 
  0.0055061 
   0.008828 
  0.0095387 
   0.010444 
  0.0075586 
  0.0017637 
  0.0086521 
   0.010185 
  0.0097054 
  0.0060439 
  0.0098281 
  0.0030084 
  0.0039126 
  0.0084759 
   0.010623 
  0.0065364 
   0.010071 
   0.002104 
  0.0073789 
  0.0083027 
   0.010658 
   0.005329 
   0.010556 
  0.0047966 
  0.0024593 
   0.010438 
  0.0033852 
  0.0058682 
 0.00054132 
    0.01026 
 0.00089154 
  0.0042446 
   0.010764 
  0.0081301 
  0.0063916 
  0.0001755 
   0.010803 
  0.0012422 
   0.010427 
  0.0071702 
  0.0079205 
  0.0093821 
   0.010822 
  0.0037392 
  0.0097255 
  0.0095715 
  0.0028102 
   0.009195 
   0.006921 
  0.0015925 
  0.0045875 
  0.0051393 
    0.01019 
   0.010543 
  0.0090208 
  0.0099148 
   0.010697 
   0.010059 
  0.0056899 
  0.0088316 
  0.0019447 
   0.010841 
  0.0077377 
  0.0062292 
  0.0086466 
  0.0040779 
  0.0031639 
  0.0022742 
   0.010998 
   0.010416 
  0.0067477 
  0.0084793 
  0.0075534 
 0.00039536 
  0.0049374 
 0.00072865 
  0.0043625 
   0.011016 
   0.005485 
   0.010931 
  0.0025931 
  0.0035583 
   0.010601 
   0.001062 
  0.0060391 
  0.0082915 
     0.0108 
   0.011138 
  0.0073649 
  0.0065898 
  0.0014101 
   0.010105 
   0.010782 
  0.0095644 
  0.0097545 
 0.00019939 
   0.009931 
   0.011177 
  0.0093847 
  0.0081032 
   0.010253 
  0.0039061 
  0.0017698 
   0.011194 
  0.0092028 
  0.0071016 
  0.0029547 
  0.0047434 
   0.010557 
  0.0052909 
   0.009011 
   0.011085 
  0.0058507 
  0.0021132 
  0.0063887 
  0.0079205 
   0.011206 
  0.0088437 
   0.010708 
  0.0042447 
  0.0024606 
 0.00044744 
  0.0069413 
   0.011372 
  0.0086674 
  0.0077344 
 0.00089468 
  0.0033544 
  0.0050983 
  0.0012378 
   0.011392 
  0.0074795 
  0.0027872 
  0.0056406 
   0.010944 
   0.008478 
  0.0037105 
   0.011333 
   0.010141 
  0.0062316 
   0.009965 
   0.011214 
   0.010297 
  0.0097586 
   0.001597 
   0.010445 
   0.011513 
   0.006753 
   0.011159 
  0.0095756 
  0.0030793 
  0.0093796 
   0.010718 
 0.00021716 
   0.011552 
  0.0082837 
  0.0019451 
  0.0040813 
  0.0060433 
   0.011567 
  0.0072999 
   0.010893 
  0.0092086 
  0.0045941 
  0.0054568 
  0.0022973 
   0.011416 
  0.0090174 
  0.0080983 
  0.0065939 
   0.011082 
   0.011589 
 0.00039593 
 0.00072172 
  0.0026504 
  0.0049614 
   0.008846 
   0.011277 
  0.0010713 
  0.0071115 
   0.011746 
  0.0079095 
   0.010183 
  0.0014221 
   0.010346 
   0.010535 
  0.0063957 
  0.0029926 
    0.01071 
   0.011762 
  0.0099486 
  0.0076609 
  0.0058081 
  0.0086556 
  0.0053036 
   0.010891 
  0.0036637 
  0.0097419 
  0.0017786 
  0.0033251 
  0.0044636 
  0.0069508 
   0.011889 
  0.0095765 
   0.011461 
   0.011083 
   0.011766 
  0.0093646 
  0.0021232 
   0.008461 
   0.011578 
   0.011927 
 0.00024467 
   0.011258 
  0.0061972 
  0.0074783 
   0.011941 
  0.0040567 
  0.0024731 
 0.00052961 
  0.0092106 
   0.004825 
   0.011436 
  0.0082755 
   0.005649 
   0.011771 
  0.0067559 
   0.011953 
  0.0012601 
 0.00091596 
  0.0028273 
  0.0051714 
  0.0090328 
   0.011614 
   0.010545 
   0.010369 
   0.010727 
  0.0015919 
  0.0073094 
   0.011939 
   0.010907 
   0.012122 
  0.0060009 
  0.0080891 
   0.011098 
   0.010105 
  0.0088597 
   0.003176 
   0.006556 
   0.012135 
   0.011811 
  0.0055221 
    0.01128 
  0.0078476 
  0.0099376 
  0.0019455 
  0.0035223 
  0.0097338 
  0.0086472 
  0.0044218 
   0.011454 
  0.0071135 
   0.012265 
   0.002296 
   0.012149 
   0.011975 
  0.0095753 
   0.012303 
    0.01163 
 0.00031305 
 0.00042944 
  0.0038705 
  0.0007305 
  0.0076725 
  0.0063617 
   0.012317 
  0.0026512 
  0.0084953 
  0.0010908 
  0.0047868 
  0.0093915 
   0.011808 
  0.0058643 
  0.0014233 
   0.012175 
  0.0069206 
   0.012329 
   0.010734 
   0.010917 
  0.0030041 
  0.0042119 
   0.010553 
   0.011101 
  0.0082906 
  0.0017636 
  0.0053856 
  0.0092174 
   0.011995 
  0.0033566 
   0.011287 
  0.0051244 
  0.0074743 
   0.011472 
   0.010303 
  0.0021345 
   0.012499 
  0.0061772 
  0.0090178 
   0.012352 
   0.010088 
   0.011652 
   0.004561 
   0.012178 
  0.0067239 
   0.012512 
  0.0098968 
  0.0057129 
  0.0080431 
  0.0037003 
   0.002494 
   0.011829 
  0.0097177 
  0.0072859 
  0.0088512 
   0.012643 
   0.012527 
   0.012363 
  0.0028521 
   0.012007 
    0.01268 
  0.0040435 
  0.0095559 
  0.0086502 
  0.0065363 
   0.012695 
  0.0078403 
    0.01219 
  0.0048889 
    0.00605 
  0.0032252 
   0.011108 
   0.010924 
   0.011293 
  0.0054651 
   0.012549 
   0.010741 
  0.0070911 
   0.011478 
   0.012709 
  0.0093875 
   0.011663 
  0.0043558 
  0.0084496 
   0.010415 
   0.012373 
   0.011846 
  0.0035647 
  0.0076564 
  0.0091891 
  0.0063919 
   0.010268 
   0.012877 
   0.012026 
   0.012728 
   0.010082 
   0.012557 
  0.0046639 
  0.0068987 
   0.012891 
   0.012206 
  0.0082806 
  0.0039154 
   0.005244 
  0.0099173 
  0.0090201 
  0.0058459 
  0.0074556 
   0.012387 
   0.012906 
   0.012742 
   0.013021 
   0.013058 
  0.0097503 
   0.010795 
  0.0088142 
  0.0042477 
   0.011298 
   0.011483 
   0.011116 
   0.011669 
   0.013074 
    0.01257 
  0.0080109 
  0.0067175 
  0.0095394 
   0.011855 
  0.0050016 
   0.012924 
   0.010616 
   0.012039 
  0.0072622 
   0.013089 
  0.0064682 
   0.012753 
   0.010455 
   0.012222 
  0.0086505 
  0.0045781 
  0.0056121 
  0.0078254 
  0.0093682 
   0.012403 
   0.013256 
   0.010283 
   0.013105 
  0.0062126 
   0.012936 
   0.012585 
  0.0091769 
  0.0070705 
   0.013271 
  0.0084498 
   0.010087 
  0.0049129 
  0.0076342 
   0.012767 
    0.01312 
   0.013286 
     0.0134 
  0.0099112 
   0.011672 
   0.011484 
   0.011859 
   0.011297 
   0.012046 
   0.013437 
  0.0059798 
  0.0090005 
   0.011113 
   0.012232 
    0.01295 
  0.0097048 
  0.0068363 
  0.0082711 
   0.013454 
   0.010807 
   0.012416 
  0.0053572 
   0.013302 
  0.0074383 
   0.010637 
   0.013469 
   0.012599 
  0.0088155 
   0.013133 
  0.0095467 
   0.012782 
  0.0080775 
   0.010457 
  0.0066353 
   0.013485 
   0.013636 
   0.013316 
  0.0057165 
   0.012965 
   0.009358 
   0.010274 
   0.007238 
   0.013652 
  0.0086387 
   0.010073 
  0.0063308 
   0.013147 
   0.011859 
   0.012048 
    0.01167 
   0.012236 
   0.013499 
  0.0079043 
    0.01148 
   0.012423 
   0.013667 
   0.013781 
   0.011292 
    0.01261 
  0.0091795 
  0.0084495 
   0.013817 
    0.01333 
   0.010997 
  0.0060507 
  0.0098772 
   0.012795 
   0.013836 
   0.013682 
   0.010828 
   0.012978 
  0.0089979 
  0.0077148 
   0.013851 
   0.013514 
  0.0070505 
   0.013162 
   0.010671 
  0.0097361 
  0.0082718 
  0.0064268 
   0.013866 
   0.014022 
   0.013345 
   0.013697 
   0.010437 
  0.0095456 
   0.010239 
  0.0088183 
   0.012236 
   0.014035 
   0.012046 
   0.012426 
   0.011854 
   0.012614 
  0.0075341 
   0.013528 
   0.011663 
   0.012802 
  0.0080866 
    0.01388 
   0.011473 
   0.012989 
   0.014049 
   0.014167 
  0.0093623 
  0.0068145 
   0.013712 
   0.011274 
  0.0086335 
   0.013174 
   0.014213 
   0.014218 
   0.010119 
   0.011087 
   0.013359 
   0.014064 
  0.0073622 
   0.013895 
  0.0091811 
  0.0079052 
   0.014234 
   0.010899 
   0.013543 
  0.0099173 
  0.0084533 
  0.0071295 
   0.010704 
   0.013727 
   0.014248 
   0.014079 
   0.012423 
   0.012614 
   0.014399 
   0.012232 
   0.012804 
  0.0097332 
   0.010473 
   0.012041 
   0.012994 
   0.009009 
   0.014418 
    0.01185 
   0.013182 
    0.01391 
  0.0077346 
    0.01166 
   0.013369 
  0.0082666 
   0.014263 
   0.014433 
   0.011464 
   0.013555 
   0.014562 
  0.0095541 
   0.014094 
  0.0075231 
  0.0088195 
   0.011274 
    0.01374 
   0.014602 
    0.01037 
   0.014447 
   0.014649 
   0.014278 
   0.011084 
  0.0093791 
   0.013925 
   0.014618 
  0.0080995 
  0.0086384 
   0.012802 
    0.01261 
   0.012994 
   0.010896 
   0.014109 
   0.012418 
   0.013184 
   0.014632 
   0.014462 
  0.0078989 
   0.012227 
   0.013374 
   0.014791 
  0.0099118 
   0.012035 
   0.013562 
   0.010727 
   0.010278 
  0.0091859 
   0.014804 
   0.014293 
   0.011843 
    0.01375 
  0.0084634 
   0.014646 
   0.011651 
   0.013937 
   0.014818 
  0.0097451 
   0.014477 
   0.014944 
    0.01146 
   0.014123 
  0.0090051 
  0.0082661 
   0.014991 
   0.014832 
   0.015044 
   0.011272 
   0.014662 
   0.014308 
  0.0095522 
   0.015004 
   0.012989 
   0.013181 
   0.012797 
   0.013374 
   0.012604 
   0.013565 
   0.010783 
   0.010307 
   0.011088 
   0.014493 
   0.012412 
   0.013755 
   0.008839 
   0.014846 
   0.015017 
    0.01222 
   0.013944 
   0.015179 
   0.010113 
  0.0093836 
   0.014677 
   0.012027 
  0.0086217 
   0.014132 
   0.015191 
   0.011836 
    0.01432 
   0.015031 
   0.015204 
  0.0092059 
   0.014862 
  0.0099242 
    0.01533 
   0.011646 
   0.014506 
   0.010673 
   0.015378 
   0.015217 
   0.011457 
   0.013369 
   0.014692 
   0.013176 
   0.013562 
   0.015046 
    0.01543 
   0.012982 
   0.013755 
  0.0097504 
  0.0090269 
   0.010488 
   0.012789 
   0.013946 
   0.015391 
   0.012597 
   0.014137 
   0.011263 
   0.014877 
   0.012404 
   0.014327 
   0.015232 
   0.015404 
    0.01029 
   0.015565 
   0.009564 
   0.012213 
   0.014516 
   0.011056 
   0.015062 
   0.015578 
   0.012022 
   0.014703 
   0.015417 
  0.0093668 
    0.01559 
   0.015247 
   0.010115 
   0.011831 
    0.01489 
   0.010847 
   0.015717 
   0.013556 
    0.01375 
   0.013362 
   0.013943 
   0.013168 
    0.01164 
   0.014136 
   0.015765 
   0.015077 
   0.015604 
   0.015432 
   0.012975 
   0.014329 