# vtk DataFile Version 2.0
Steady-state stabilized finite element formulation for the 2D incopmpressible Navier Stokes equations
ASCII

DATASET UNSTRUCTURED_GRID
POINTS 8230 double
        2.2     0.40999           0 
      2.188     0.40999           0 
        2.2     0.39793           0 
     2.1818     0.39952           0 
      2.176     0.40999           0 
        2.2     0.38587           0 
     2.1878     0.38912           0 
     2.1758     0.38913           0 
     2.1698     0.39953           0 
     2.1639     0.40999           0 
        2.2     0.37381           0 
     2.1828     0.37792           0 
     2.1638     0.38914           0 
     2.1698     0.37875           0 
     2.1578     0.39954           0 
     2.1883     0.36808           0 
     2.1519     0.40999           0 
     2.1758     0.36835           0 
        2.2     0.36175           0 
     2.1578     0.37876           0 
     2.1518     0.38915           0 
     2.1828     0.35859           0 
     2.1638     0.36836           0 
     2.1458     0.39955           0 
     2.1399     0.40999           0 
     2.1698     0.35796           0 
        2.2      0.3497           0 
     2.1458     0.37877           0 
     2.1877     0.34755           0 
     2.1518     0.36837           0 
     2.1398     0.38916           0 
     2.1757     0.34756           0 
     2.1578     0.35797           0 
     2.1338     0.39955           0 
     2.1279     0.40999           0 
     2.1637     0.34757           0 
        2.2     0.33764           0 
     2.1398     0.36838           0 
     2.1338     0.37877           0 
     2.1817     0.33717           0 
     2.1458     0.35798           0 
     2.1278     0.38917           0 
     2.1697     0.33718           0 
     2.1517     0.34758           0 
     2.1218     0.39956           0 
     2.1278     0.36838           0 
     2.1877     0.32677           0 
     2.1158     0.40999           0 
     2.1577     0.33719           0 
     2.1338     0.35799           0 
     2.1218     0.37878           0 
        2.2     0.32558           0 
     2.1757     0.32678           0 
     2.1397     0.34759           0 
     2.1158     0.38918           0 
     2.1637     0.32679           0 
     2.1457      0.3372           0 
     2.1098     0.39958           0 
     2.1218       0.358           0 
     2.1158      0.3684           0 
     2.1277      0.3476           0 
     2.1098      0.3788           0 
     2.1828     0.31591           0 
     2.1038     0.40999           0 
     2.1517      0.3268           0 
        2.2     0.31352           0 
     2.1697     0.31639           0 
     2.1337     0.33721           0 
     2.1038     0.38919           0 
     2.1577      0.3164           0 
     2.1397     0.32681           0 
     2.0978     0.39959           0 
     2.1098     0.35801           0 
     2.1877     0.30598           0 
     2.1038     0.36841           0 
     2.1157     0.34762           0 
     2.1757       0.306           0 
     2.1217     0.33722           0 
     2.0978     0.37881           0 
     2.1457     0.31641           0 
     2.0918     0.40999           0 
        2.2     0.30146           0 
     2.1637     0.30601           0 
     2.1277     0.32682           0 
     2.0918      0.3892           0 
     2.1517     0.30602           0 
     2.1337     0.31642           0 
     2.0858      0.3996           0 
     2.0978     0.35803           0 
     2.1037     0.34763           0 
     2.1853     0.29522           0 
     2.1097     0.33723           0 
     2.0918     0.36842           0 
     2.1697     0.29561           0 
     2.1157     0.32684           0 
     2.0858     0.37881           0 
     2.0798     0.40999           0 
       2.14     0.30557           0 
        2.2      0.2894           0 
     2.1577     0.29562           0 
     2.1217     0.31644           0 
     2.0798      0.3892           0 
     2.0917     0.34764           0 
     2.0977     0.33724           0 
     2.0858     0.35803           0 
     2.1457     0.29563           0 
     2.0738     0.39959           0 
     2.1288      0.3047           0 
     2.1757     0.28521           0 
     2.1037     0.32684           0 
     2.0798     0.36843           0 
     2.1885     0.28287           0 
     2.1651     0.28678           0 
     2.1097     0.31645           0 
     2.0738     0.37882           0 
     2.0678     0.40999           0 
        2.2     0.27734           0 
     2.1357     0.29295           0 
     2.1157     0.30605           0 
     2.0678     0.38919           0 
     2.0857     0.33725           0 
     2.0798     0.34764           0 
      2.191     0.27431           0 
      2.179     0.27541           0 
     2.0917     0.32685           0 
     2.0738     0.35804           0 
     2.1551     0.28094           0 
     2.1672     0.27654           0 
     2.0678     0.36843           0 
     2.0977     0.31646           0 
     2.0618     0.39958           0 
     2.1262     0.29082           0 
      2.142     0.28105           0 
     2.1037     0.30606           0 
     2.0618     0.37881           0 
     2.0557     0.40999           0 
        2.2     0.26528           0 
     2.0558     0.38921           0 
     2.0737     0.33726           0 
     2.1143     0.29189           0 
     2.0797     0.32686           0 
     2.0678     0.34765           0 
     2.1841     0.26451           0 
     2.1721     0.26561           0 
     2.1312     0.27993           0 
     2.0857     0.31647           0 
     2.0618     0.35805           0 
     2.1602     0.26678           0 
     2.0951     0.30424           0 
     2.0558     0.36846           0 
     2.0498     0.39959           0 
     2.1482      0.2679           0 
     2.1193     0.28101           0 
     2.1006     0.29325           0 
     2.0498     0.37881           0 
     2.1363     0.26904           0 
     2.0617     0.33727           0 
     2.0677     0.32687           0 
     2.0437     0.40999           0 
     2.1891     0.25361           0 
        2.2     0.25323           0 
     2.1771     0.25473           0 
     2.0737     0.31648           0 
     2.0558     0.34767           0 
     2.0831     0.30474           0 
     2.0438      0.3892           0 
     2.1074     0.28209           0 
     2.1651     0.25587           0 
     2.0498     0.35806           0 
     2.1243     0.27011           0 
     2.1533     0.25701           0 
     2.0886     0.29411           0 
     2.0438     0.36846           0 
     2.0378     0.39959           0 
     2.1412     0.25815           0 
     2.1124      0.2712           0 
     2.0378      0.3788           0 
     2.0937     0.28341           0 
     2.1294     0.25925           0 
     2.0557     0.32688           0 
     2.0497     0.33728           0 
     2.0617     0.31649           0 
     2.1821     0.24379           0 
     2.1701     0.24497           0 
     2.0677     0.30609           0 
     2.0438     0.34768           0 
     2.0317     0.40999           0 
        2.2     0.24117           0 
     2.0767     0.29461           0 
     2.1582     0.24607           0 
     2.0318     0.38919           0 
     2.0378     0.35808           0 
      2.099     0.27275           0 
     2.1175     0.26034           0 
     2.1463     0.24726           0 
     2.0823     0.28406           0 
     2.0318     0.36848           0 
     2.0259     0.39961           0 
     2.1343     0.24834           0 
     2.1046     0.26213           0 
     2.0258     0.37888           0 
     2.0437      0.3269           0 
     2.0497      0.3165           0 
     2.0874     0.27331           0 
     2.0647     0.29525           0 
      2.187     0.23286           0 
     2.1751     0.23405           0 
     2.0377     0.33729           0 
     2.0557      0.3061           0 
     2.1225     0.24946           0 
     2.1632     0.23518           0 
     2.0318     0.34769           0 
     2.0704     0.28471           0 
     2.0197     0.40999           0 
     2.1513     0.23627           0 
        2.2     0.22911           0 
     2.0198     0.38925           0 
     2.0257      0.3581           0 
     2.1102      0.2515           0 
     2.0926     0.26261           0 
     2.1394     0.23746           0 
     2.0758     0.27407           0 
     2.0198     0.36851           0 
     2.1274     0.23852           0 
     2.0528     0.29569           0 
     2.0139     0.39962           0 
     2.0377     0.31655           0 
     2.1904     0.22289           0 
     2.0436     0.30615           0 
     2.0317     0.32693           0 
     2.1801     0.22316           0 
     2.0982     0.25199           0 
     2.1682     0.22425           0 
     2.0138     0.37886           0 
     2.0257     0.33731           0 
     2.0584      0.2851           0 
     2.0811     0.26327           0 
     2.1562     0.22546           0 
     2.1155     0.23973           0 
     2.0198     0.34771           0 
     2.1443     0.22653           0 
     2.0639     0.27463           0 
     2.0076     0.40999           0 
        2.2     0.21705           0 
     2.0138     0.35811           0 
     2.0078     0.38925           0 
     2.0863     0.25246           0 
     2.1324     0.22776           0 
     2.1036     0.24076           0 
     2.0691     0.26414           0 
     2.0078      0.3685           0 
     2.0464     0.28552           0 
     2.0316     0.30619           0 
     2.0257     0.31652           0 
     2.1204      0.2288           0 
     2.1874     0.21218           0 
     2.0019     0.39966           0 
     2.1732     0.21337           0 
     2.0197     0.32693           0 
     2.0376     0.29578           0 
     2.1613     0.21456           0 
     2.0917     0.24196           0 
     2.0137     0.33733           0 
     2.0018      0.3789           0 
     2.0743     0.25335           0 
[...]
POINT_DATA 8230
SCALARS pressure double
LOOKUP_TABLE default
 0.00031851 
 0.00043823 
 0.00025737 
  0.0005584 
 0.00072022 
 0.00021828 
 0.00041679 
 0.00072889 
  0.0008935 
  0.0010553 
 0.00015022 
 0.00052097 
  0.0010684 
 0.00090161 
  0.0012348 
  0.0003614 
  0.0013997 
 0.00072958 
 0.00013924 
  0.0012451 
   0.001413 
 0.00050707 
  0.0010735 
  0.0015802 
  0.0017472 
 0.00089281 
 0.00019073 
  0.0015909 
 0.00038324 
  0.0014198 
  0.0017594 
 0.00071063 
  0.0012438 
  0.0019274 
   0.002096 
  0.0010626 
 0.00018885 
   0.001768 
  0.0019388 
 0.00053426 
   0.001594 
  0.0021077 
 0.00088205 
  0.0014163 
  0.0022763 
  0.0021173 
 0.00038327 
  0.0024461 
  0.0012367 
  0.0019442 
  0.0022879 
 0.00019703 
 0.00070691 
  0.0017692 
  0.0024573 
  0.0010601 
  0.0015908 
  0.0026266 
  0.0022951 
  0.0024675 
  0.0021211 
  0.0026383 
 0.00050519 
  0.0027977 
   0.001413 
 0.00014208 
 0.00088815 
  0.0019459 
  0.0028082 
  0.0012429 
  0.0017648 
  0.0029782 
  0.0026467 
  0.0003712 
  0.0028189 
  0.0024733 
 0.00072457 
  0.0022993 
  0.0029898 
  0.0015896 
  0.0031505 
 0.00019508 
  0.0010696 
  0.0021249 
  0.0031601 
  0.0014234 
  0.0019359 
  0.0033307 
  0.0029992 
   0.002826 
  0.0004267 
  0.0026519 
  0.0031712 
 0.00089982 
  0.0024799 
  0.0033425 
   0.003504 
  0.0017459 
 0.00018504 
    0.00125 
   0.002311 
  0.0035129 
  0.0031795 
  0.0030052 
  0.0033523 
  0.0015823 
  0.0036842 
  0.0020974 
  0.0006723 
  0.0028296 
  0.0035244 
 0.00034756 
  0.0010223 
  0.0026618 
  0.0036961 
  0.0038585 
 0.00016567 
  0.0018791 
  0.0024868 
  0.0038669 
  0.0033602 
  0.0035332 
 0.00029396 
 0.00061487 
   0.003184 
  0.0037064 
  0.0013271 
 0.00096769 
  0.0038784 
  0.0030062 
  0.0040384 
  0.0021827 
  0.0016977 
  0.0028042 
  0.0040505 
  0.0042138 
 0.00013277 
  0.0042221 
  0.0037148 
  0.0025396 
  0.0035432 
  0.0038881 
 0.00048033 
  0.0008344 
  0.0020468 
   0.003368 
  0.0040613 
  0.0011699 
  0.0031127 
  0.0042337 
  0.0043938 
  0.0015279 
  0.0023789 
   0.002936 
  0.0044057 
  0.0018954 
  0.0040699 
  0.0038962 
  0.0045703 
 0.00036184 
 0.00015317 
 0.00068174 
   0.003724 
  0.0042438 
  0.0034529 
   0.004578 
  0.0027392 
  0.0010304 
  0.0044173 
  0.0022343 
  0.0013826 
  0.0032907 
  0.0045904 
  0.0047497 
  0.0017439 
  0.0025907 
  0.0047621 
  0.0031336 
  0.0020896 
  0.0042517 
  0.0044263 
  0.0040773 
 0.00054247 
 0.00088936 
  0.0039015 
  0.0046005 
  0.0049275 
  0.0001293 
  0.0036311 
   0.001241 
  0.0049348 
  0.0047744 
  0.0029758 
  0.0024445 
  0.0015953 
  0.0034797 
  0.0049477 
  0.0051059 
  0.0019463 
  0.0028177 
    0.00512 
  0.0046091 
   0.004435 
  0.0033274 
  0.0039931 
  0.0004088 
  0.0007531 
  0.0047834 
   0.004262 
  0.0022963 
  0.0010996 
   0.004958 
  0.0038324 
  0.0052867 
  0.0014497 
 0.00013406 
  0.0052929 
  0.0051324 
   0.002657 
  0.0031727 
  0.0018025 
  0.0036756 
  0.0053061 
   0.002157 
  0.0043613 
  0.0054645 
  0.0047932 
 0.00031904 
  0.0046224 
  0.0049685 
 0.00061739 
  0.0030162 
 0.00095946 
  0.0054788 
  0.0051426 
  0.0041842 
  0.0035227 
  0.0013082 
   0.002502 
  0.0053169 
  0.0016587 
   0.004031 
  0.0056463 
 0.00012545 
  0.0054912 
  0.0056523 
  0.0033689 
  0.0020123 
  0.0028588 
  0.0038797 
  0.0056655 
  0.0045493 
   0.004978 
  0.0051522 
  0.0023647 
  0.0004006 
  0.0058244 
 0.00081626 
  0.0053277 
  0.0048038 
  0.0011639 
  0.0032142 
  0.0055019 
  0.0058388 
  0.0037249 
  0.0015147 
   0.002717 
  0.0056769 
  0.0044535 
  0.0018624 
  0.0060076 
  0.0058514 
  0.0042795 
  0.0001223 
  0.0060129 
  0.0022166 
  0.0035712 
  0.0030699 
   0.005338 
  0.0060262 
  0.0041057 
  0.0051636 
  0.0055126 
 0.00067518 
 0.00034135 
  0.0010208 
  0.0056877 
  0.0025774 
   0.004991 
  0.0013707 
  0.0061861 
   0.005862 
  0.0048168 
  0.0034112 
  0.0017268 
  0.0062002 
  0.0039137 
  0.0060382 
  0.0046412 
  0.0029208 
  0.0020607 
  0.0063708 
  0.0062131 
  0.0044652 
 0.00011004 
  0.0063751 
  0.0024401 
   0.003761 
  0.0055223 
  0.0056984 
  0.0032732 
 0.00052648 
 0.00087207 
  0.0053493 
  0.0058735 
  0.0012224 
   0.006388 
  0.0042917 
  0.0051736 
  0.0060486 
  0.0015745 
  0.0027964 
  0.0065494 
  0.0062237 
  0.0049995 
  0.0019193 
  0.0036222 
  0.0065635 
  0.0041169 
  0.0064001 
  0.0048245 
   0.006576 
  0.0046501 
  0.0067362 
   0.003213 
  0.0058833 
 0.00034776 
  0.0067394 
 0.00011453 
   0.005709 
  0.0060598 
   0.003506 
 0.00072555 
  0.0026491 
  0.0010755 
  0.0039795 
  0.0055343 
  0.0062348 
  0.0023632 
  0.0014294 
  0.0053584 
  0.0064109 
   0.006751 
  0.0044771 
   0.001774 
  0.0030001 
  0.0065863 
  0.0051844 
  0.0069156 
  0.0038233 
  0.0069283 
  0.0043099 
  0.0067634 
  0.0050092 
  0.0022075 
  0.0062443 
  0.0060703 
  0.0005778 
    0.00694 
  0.0058948 
  0.0048344 
  0.0064218 
  0.0009273 
  0.0036296 
  0.0071054 
  0.0012804 
  0.0057194 
  0.0071062 
  0.0065973 
 0.00011229 
  0.0041422 
  0.0016267 
  0.0025431 
  0.0067738 
   0.005544 
  0.0071143 
  0.0046634 
  0.0034176 
  0.0028678 
  0.0069501 
  0.0053702 
  0.0020231 
  0.0072855 
  0.0039664 
  0.0071278 
  0.0072944 
  0.0051942 
  0.0044937 
  0.0064308 
  0.0032382 
  0.0066074 
  0.0062569 
  0.0023689 
 0.00039239 
 0.00078443 
  0.0011316 
  0.0067838 
  0.0060788 
  0.0014815 
  0.0073045 
  0.0050184 
   0.005904 
  0.0069597 
  0.0037961 
  0.0074794 
  0.0074754 
 0.00012345 
  0.0043223 
  0.0027063 
  0.0071375 
  0.0057312 
  0.0018398 
  0.0048505 
  0.0074759 
  0.0073146 
  0.0055555 
  0.0036128 
  0.0021865 
 0.00028985 
  0.0076618 
  0.0030682 
  0.0009491 
  0.0041534 
 0.00061544 
  0.0074926 
  0.0053787 
  0.0067945 
  0.0076591 
  0.0066181 
  0.0046782 
   0.006439 
  0.0069705 
  0.0012934 
  0.0062657 
   0.007147 
  0.0025362 
   0.001652 
  0.0073239 
  0.0076668 
  0.0060929 
  0.0052066 
  0.0034289 
   0.003967 
  0.0078487 
   0.004509 
  0.0078545 
 0.00014072 
  0.0075024 
  0.0059181 
  0.0028916 
  0.0020033 
  0.0050375 
  0.0078118 
  0.0076818 
  0.0057418 
 0.00076826 
 0.00042983 
  0.0023562 
  0.0043193 
  0.0037776 
  0.0011145 
  0.0069811 
   0.006801 
  0.0071574 
  0.0032519 
  0.0055653 
  0.0066278 
  0.0073345 
  0.0078644 
  0.0080824 
  0.0080379 
  0.0014721 
  0.0048649 
  0.0075111 
  0.0064546 
  0.0027117 
  0.0018266 
  0.0062779 
   0.007688 
   0.008046 
  0.0041294 
  0.0053956 
   0.003608 
  0.0082056 
  0.0046782 
  0.0078679 
   0.006103 
 0.00013106 
    0.00218 
  0.0081614 
  0.0030641 
 0.00096426 
 0.00063357 
  0.0052094 
  0.0059271 
  0.0080499 
  0.0083239 
  0.0071652 
 0.00034045 
  0.0073443 
  0.0012941 
  0.0069912 
  0.0075215 
   0.002535 
  0.0039589 
  0.0044892 
  0.0076984 
  0.0068181 
  0.0034183 
  0.0057467 
  0.0082373 
  0.0016415 
  0.0050351 
  0.0078742 
  0.0066414 
   0.002891 
  0.0080512 
  0.0064657 
  0.0019948 
  0.0055667 
  0.0084143 
  0.0043042 
  0.0085245 
  0.0085478 
  0.0037741 
   0.008232 
  0.0062895 
  0.0048479 
  0.0085702 
 0.00080964 
  0.0023476 
 0.00017881 
  0.0032418 
  0.0011259 
  0.0053847 
  0.0075288 
  0.0073541 
  0.0061079 
  0.0077063 
   0.008411 
 0.00045435 
  0.0071816 
  0.0078866 
  0.0014645 
  0.0027012 
  0.0070035 
  0.0080656 
   0.004127 
  0.0046618 
  0.0035858 
  0.0018112 
  0.0059295 
  0.0085895 
  0.0087239 
  0.0082372 
  0.0068293 
  0.0052049 
  0.0030562 
  0.0084157 
  0.0066526 
  0.0021657 
  0.0087748 
  0.0057448 
  0.0044756 
  0.0039403 
 0.00083647 
  0.0064697 
   0.008591 
  0.0050215 
  0.0089071 
  0.0025221 
  0.0077192 
  0.0078941 
  0.0001574 
  0.0012743 
  0.0034082 
  0.0080675 
  0.0075448 
  0.0089339 
  0.0073639 
  0.0055622 
   0.006291 
  0.0087627 
  0.0082523 
  0.0016324 
  0.0089538 
  0.0071903 
  0.0028683 
  0.0084308 
  0.0042957 
  0.0048332 
  0.0019859 
  0.0004377 
  0.0086017 
  0.0070132 
  0.0037544 
  0.0061079 
  0.0089535 
  0.0053772 
  0.0068333 
   0.008774 
  0.0091346 
  0.0032205 
  0.0023379 
  0.0059241 
  0.0011082 
  0.0091579 
 0.00076531 
  0.0046548 
  0.0066503 
  0.0041097 
   0.008957 
  0.0080861 
  0.0079047 
  0.0082598 
  0.0051898 
  0.0026886 
  0.0092855 
  0.0077299 
  0.0084358 
  0.0014575 
  0.0035761 
 0.00015932 
  0.0075491 
  0.0093206 
  0.0086181 
  0.0064705 
   0.005744 
  0.0018054 
  0.0091503 
  0.0073776 
  0.0093311 
   0.008814 
  0.0030357 
  0.0021506 
  0.0044647 
  0.0071976 
  0.0050108 
  0.0062919 
  0.0039283 
  0.0089878 
  0.0093502 
 0.00055698 
   0.005539 
  0.0070162 
 0.00091423 
  0.0033842 
  0.0025026 
  0.0095157 
  0.0091553 
  0.0082701 
  0.0012739 
  0.0060982 
  0.0084453 
  0.0080927 
  0.0086243 
  0.0068345 
  0.0048197 
  0.0042715 
  0.0079187 
  0.0095623 
  0.0088095 
   0.001626 
   0.009335 
  0.0028565 
  0.0053742 
  0.0096539 
   0.003735 
  0.0077446 
  0.0089935 
 0.00018594 
  0.0096929 
   0.006653 
  0.0019746 
  0.0058992 
  0.0075625 
  0.0095227 
  0.0091652 
 0.00037809 
  0.0097045 
  0.0032105 
  0.0046272 
  0.0023204 
  0.0073813 
  0.0093598 
  0.0051778 
  0.0064763 
  0.0040947 
 0.00074251 
  0.0010857 
  0.0071981 
  0.0097385 
  0.0057225 
  0.0095128 
  0.0014364 
  0.0035561 
  0.0026711 
  0.0088037 
  0.0084524 
  0.0086328 
  0.0098842 
  0.0082856 
   0.008991 
  0.0070171 
  0.0081116 
   0.009157 
  0.0062514 
  0.0097038 
  0.0017888 
  0.0049844 
  0.0044412 
  0.0079248 
  0.0030249 
  0.0055384 
  0.0093255 
   0.010023 
  0.0038968 
  0.0021423 
 0.00017811 
  0.0099658 
  0.0068318 
  0.0095178 
   0.010062 
  0.0060541 
  0.0077472 
  0.0099053 
 0.00052033 
   0.010076 
  0.0033794 
  0.0075634 
  0.0024884 
   0.004788 
  0.0097007 
 0.00091621 
   0.005337 
  0.0066579 
  0.0042695 
  0.0012632 
  0.0089903 
  0.0088208 
  0.0091748 
  0.0073812 
  0.0086524 
  0.0098773 
  0.0016017 
  0.0058795 
  0.0028388 
  0.0037335 
  0.0084767 
  0.0093601 
   0.010252 
  0.0095061 
  0.0082888 
   0.010156 
  0.0096764 
   0.006393 
  0.0019449 
  0.0071965 
   0.008112 
  0.0051474 
  0.0046215 
   0.010074 
  0.0032049 
   0.005685 
   0.010294 
   0.010394 
  0.0022988 
  0.0062068 
  0.0040969 
  0.0079417 
  0.0098942 
  0.0070043 
 0.00036538 
 0.00018624 
   0.010434 
 0.00072844 
   0.010048 
  0.0010826 
   0.010448 
  0.0035599 
  0.0077461 
  0.0026572 
   0.010316 
  0.0044541 
   0.004977 
  0.0093562 
  0.0091885 
  0.0014268 
  0.0090146 
  0.0068243 
  0.0055084 
  0.0088317 
  0.0095428 
   0.010448 
  0.0075618 
  0.0017644 
  0.0086558 
   0.010189 
  0.0097095 
  0.0060464 
  0.0098323 
  0.0030097 
  0.0039142 
  0.0084795 
   0.010627 
  0.0065392 
   0.010075 
  0.0021049 
   0.007382 
  0.0083063 
   0.010663 
  0.0053312 
    0.01056 
  0.0047986 
  0.0024603 
   0.010442 
  0.0033866 
  0.0058706 
 0.00054154 
   0.010264 
  0.0008919 
  0.0042464 
   0.010768 
  0.0081335 
  0.0063943 
 0.00017557 
   0.010808 
  0.0012427 
   0.010431 
  0.0071732 
  0.0079238 
  0.0093862 
   0.010826 
  0.0037407 
  0.0097297 
  0.0095756 
  0.0028113 
   0.009199 
  0.0069239 
  0.0015931 
  0.0045894 
  0.0051415 
   0.010195 
   0.010548 
  0.0090247 
   0.009919 
   0.010702 
   0.010063 
  0.0056923 
  0.0088353 
  0.0019455 
   0.010846 
   0.007741 
  0.0062318 
  0.0086503 
  0.0040796 
  0.0031652 
  0.0022752 
   0.011003 
   0.010421 
  0.0067505 
  0.0084829 
  0.0075566 
 0.00039552 
  0.0049394 
 0.00072895 
  0.0043643 
   0.011021 
  0.0054872 
   0.010936 
  0.0025941 
  0.0035598 
   0.010606 
  0.0010625 
  0.0060416 
   0.008295 
   0.010804 
   0.011143 
   0.007368 
  0.0065926 
  0.0014107 
   0.010109 
   0.010787 
  0.0095685 
  0.0097587 
 0.00019946 
  0.0099352 
   0.011182 
  0.0093887 
  0.0081067 
   0.010257 
  0.0039077 
  0.0017705 
   0.011199 
  0.0092067 
  0.0071046 
   0.002956 
  0.0047454 
   0.010562 
  0.0052931 
  0.0090148 
   0.011089 
  0.0058531 
  0.0021141 
  0.0063914 
  0.0079238 
   0.011211 
  0.0088474 
   0.010712 
  0.0042465 
  0.0024617 
 0.00044762 
  0.0069442 
   0.011377 
   0.008671 
  0.0077377 
 0.00089504 
  0.0033558 
  0.0051004 
  0.0012383 
   0.011397 
  0.0074827 
  0.0027883 
  0.0056429 
   0.010949 
  0.0084816 
   0.003712 
   0.011338 
   0.010145 
  0.0062342 
  0.0099693 
   0.011219 
   0.010302 
  0.0097627 
  0.0015976 
   0.010449 
   0.011518 
  0.0067558 
   0.011164 
  0.0095797 
  0.0030805 
  0.0093836 
   0.010722 
 0.00021724 
   0.011557 
  0.0082872 
  0.0019459 
   0.004083 
  0.0060458 
   0.011572 
  0.0073029 
   0.010897 
  0.0092125 
   0.004596 
  0.0054591 
  0.0022983 
   0.011421 
  0.0090212 
  0.0081017 
  0.0065966 
   0.011087 
   0.011594 
 0.00039609 
 0.00072201 
  0.0026514 
  0.0049635 
  0.0088497 
   0.011282 
  0.0010718 
  0.0071144 
   0.011751 
  0.0079128 
   0.010187 
  0.0014227 
    0.01035 
   0.010539 
  0.0063984 
  0.0029938 
   0.010715 
   0.011767 
  0.0099529 
  0.0076641 
  0.0058105 
  0.0086592 
  0.0053058 
   0.010895 
  0.0036652 
   0.009746 
  0.0017793 
  0.0033265 
  0.0044655 
  0.0069537 
   0.011894 
  0.0095805 
   0.011466 
   0.011087 
   0.011771 
  0.0093685 
  0.0021241 
  0.0084646 
   0.011583 
   0.011932 
 0.00024475 
   0.011263 
  0.0061997 
  0.0074814 
   0.011946 
  0.0040584 
  0.0024741 
 0.00052982 
  0.0092145 
   0.004827 
   0.011441 
   0.008279 
  0.0056514 
   0.011776 
  0.0067588 
   0.011958 
  0.0012606 
 0.00091633 
  0.0028285 
  0.0051736 
  0.0090366 
   0.011619 
   0.010549 
   0.010373 
   0.010731 
  0.0015925 
  0.0073124 
   0.011944 
   0.010911 
   0.012127 
  0.0060034 
  0.0080925 
   0.011103 
    0.01011 
  0.0088634 
  0.0031773 
  0.0065587 
    0.01214 
   0.011816 
  0.0055244 
   0.011285 
  0.0078509 
  0.0099418 
  0.0019463 
  0.0035237 
  0.0097379 
  0.0086508 
  0.0044236 
   0.011459 
  0.0071164 
   0.012271 
   0.002297 
   0.012154 
   0.011981 
  0.0095794 
   0.012309 
   0.011635 
 0.00031316 
 0.00042961 
  0.0038721 
 0.00073079 
  0.0076757 
  0.0063644 
   0.012322 
  0.0026523 
  0.0084988 
  0.0010913 
  0.0047888 
  0.0093955 
   0.011813 
  0.0058667 
  0.0014239 
   0.012181 
  0.0069235 
   0.012335 
   0.010739 
   0.010922 
  0.0030053 
  0.0042136 
   0.010558 
   0.011106 
  0.0082941 
  0.0017644 
  0.0053878 
  0.0092212 
   0.012001 
   0.003358 
   0.011292 
  0.0051266 
  0.0074774 
   0.011477 
   0.010307 
  0.0021354 
   0.012504 
  0.0061798 
  0.0090215 
   0.012358 
   0.010092 
   0.011657 
  0.0045629 
   0.012183 
  0.0067267 
   0.012518 
   0.009901 
  0.0057152 
  0.0080465 
  0.0037018 
   0.002495 
   0.011834 
  0.0097218 
  0.0072889 
  0.0088549 
   0.012648 
   0.012532 
   0.012369 
  0.0028533 
   0.012012 
   0.012686 
  0.0040452 
  0.0095599 
  0.0086538 
   0.006539 
     0.0127 
  0.0078435 
   0.012195 
  0.0048909 
  0.0060525 
  0.0032265 
   0.011112 
   0.010929 
   0.011297 
  0.0054673 
   0.012555 
   0.010746 
  0.0070941 
   0.011483 
   0.012714 
  0.0093915 
   0.011668 
  0.0043575 
  0.0084531 
   0.010419 
   0.012378 
   0.011851 
  0.0035662 
  0.0076596 
   0.009193 
  0.0063945 
   0.010272 
   0.012882 
   0.012031 
   0.012733 
   0.010086 
   0.012562 
  0.0046658 
  0.0069016 
   0.012897 
   0.012211 
   0.008284 
   0.003917 
  0.0052461 
  0.0099215 
  0.0090239 
  0.0058483 
  0.0074588 
   0.012392 
   0.012912 
   0.012747 
   0.013027 
   0.013064 
  0.0097544 
     0.0108 
  0.0088178 
  0.0042494 
   0.011302 
   0.011488 
   0.011121 
   0.011674 
   0.013079 
   0.012575 
  0.0080142 
  0.0067203 
  0.0095434 
    0.01186 
  0.0050037 
    0.01293 
   0.010621 
   0.012044 
  0.0072652 
   0.013094 
  0.0064709 
   0.012758 
    0.01046 
   0.012227 
  0.0086542 
    0.00458 
  0.0056144 
  0.0078287 
  0.0093722 
   0.012409 
   0.013261 
   0.010287 
   0.013111 
  0.0062152 
   0.012942 
    0.01259 
  0.0091808 
  0.0070734 
   0.013277 
  0.0084533 
   0.010091 
  0.0049149 
  0.0076374 
   0.012772 
   0.013125 
   0.013292 
   0.013406 
  0.0099154 
   0.011677 
   0.011489 
   0.011864 
   0.011302 
   0.012051 
   0.013442 
  0.0059823 
  0.0090042 
   0.011118 
   0.012237 
   0.012955 
  0.0097089 
  0.0068392 
  0.0082745 
   0.013459 
   0.010812 
   0.012421 
  0.0053594 
   0.013308 
  0.0074414 
   0.010641 
   0.013475 
   0.012605 
  0.0088192 
   0.013139 
  0.0095507 
   0.012788 
  0.0080809 
   0.010462 
  0.0066381 
    0.01349 
   0.013642 
   0.013322 
  0.0057189 
    0.01297 
  0.0093619 
   0.010278 
   0.007241 
   0.013658 
  0.0086424 
   0.010078 
  0.0063335 
   0.013153 
   0.011864 
   0.012053 
   0.011674 
   0.012241 
   0.013505 
  0.0079076 
   0.011485 
   0.012429 
   0.013673 
   0.013787 
   0.011297 
   0.012615 
  0.0091834 
   0.008453 
   0.013823 
   0.013336 
   0.011001 
  0.0060532 
  0.0098814 
     0.0128 
   0.013842 
   0.013688 
   0.010832 
   0.012984 
  0.0090016 
   0.007718 
   0.013857 
   0.013519 
  0.0070534 
   0.013168 
   0.010675 
  0.0097402 
  0.0082752 
  0.0064295 
   0.013872 
   0.014028 
   0.013351 
   0.013703 
   0.010442 
  0.0095496 
   0.010243 
   0.008822 
   0.012242 
   0.014041 
   0.012051 
   0.012431 
   0.011859 
    0.01262 
  0.0075372 
   0.013534 
   0.011668 
   0.012807 
    0.00809 
   0.013886 
   0.011477 
   0.012994 
   0.014055 
   0.014173 
  0.0093662 
  0.0068174 
   0.013718 
   0.011279 
  0.0086371 
    0.01318 
   0.014219 
   0.014224 
   0.010123 
   0.011091 
   0.013364 
    0.01407 
  0.0073652 
   0.013901 
  0.0091849 
  0.0079085 
    0.01424 
   0.010903 
   0.013549 
  0.0099214 
  0.0084568 
  0.0071325 
   0.010709 
   0.013733 
   0.014254 
   0.014085 
   0.012429 
    0.01262 
   0.014405 
   0.012237 
    0.01281 
  0.0097373 
   0.010477 
   0.012046 
   0.012999 
  0.0090127 
   0.014424 
   0.011855 
   0.013187 
   0.013916 
  0.0077379 
   0.011665 
   0.013375 
    0.00827 
   0.014269 
   0.014439 
   0.011469 
   0.013561 
   0.014569 
  0.0095581 
     0.0141 
  0.0075262 
  0.0088231 
   0.011278 
   0.013746 
   0.014609 
   0.010374 
   0.014454 
   0.014655 
   0.014284 
   0.011089 
  0.0093831 
   0.013931 
   0.014625 
  0.0081029 
   0.008642 
   0.012807 
   0.012615 
   0.012999 
     0.0109 
   0.014115 
   0.012424 
    0.01319 
   0.014639 
   0.014468 
  0.0079022 
   0.012232 
   0.013379 
   0.014798 
  0.0099159 
    0.01204 
   0.013568 
   0.010731 
   0.010282 
  0.0091898 
    0.01481 
   0.014299 
   0.011848 
   0.013756 
  0.0084669 
   0.014653 
   0.011655 
   0.013943 
   0.014824 
  0.0097491 
   0.014484 
    0.01495 
   0.011465 
   0.014129 
  0.0090088 
  0.0082696 
   0.014998 
   0.014838 
    0.01505 
   0.011276 
   0.014668 
   0.014314 
  0.0095562 
    0.01501 
   0.012995 
   0.013187 
   0.012802 
   0.013379 
   0.012609 
    0.01357 
   0.010787 
   0.010311 
   0.011093 
   0.014499 
   0.012417 
   0.013761 
  0.0088427 
   0.014853 
   0.015024 
   0.012225 
    0.01395 
   0.015185 
   0.010118 
  0.0093875 
   0.014683 
   0.012033 
  0.0086253 
   0.014139 
   0.015197 
   0.011841 
   0.014326 
   0.015038 
    0.01521 
  0.0092098 
   0.014868 
  0.0099283 
   0.015337 
   0.011651 
   0.014512 
   0.010678 
   0.015385 
   0.015224 
   0.011462 
   0.013375 
   0.014698 
   0.013181 
   0.013568 
   0.015053 
   0.015437 
   0.012988 
    0.01376 
  0.0097544 
  0.0090306 
   0.010493 
   0.012795 
   0.013952 
   0.015397 
   0.012602 
   0.014143 
   0.011268 
   0.014883 
    0.01241 
   0.014333 
   0.015238 
    0.01541 
   0.010294 
   0.015572 
   0.009568 
   0.012218 
   0.014522 
    0.01106 
   0.015068 
   0.015585 
   0.012027 
    0.01471 
   0.015424 
  0.0093707 
   0.015597 
   0.015254 
   0.010119 
   0.011836 
   0.014897 
   0.010851 
   0.015724 
   0.013561 
   0.013755 
   0.013367 
   0.013949 
   0.013174 
   0.011645 
   0.014142 
   0.015771 
   0.015083 
    0.01561 
   0.015439 
    0.01298 
   0.014335 