# vtk DataFile Version 2.0
Steady-state stabilized finite element formulation for the 2D incopmpressible Navier Stokes equations
ASCII

DATASET UNSTRUCTURED_GRID
POINTS 8230 double
    2.1998     0.40987           0 
    2.1878     0.40988           0 
    2.1998     0.39781           0 
    2.1816     0.39941           0 
    2.1758     0.40988           0 
    2.1998     0.38575           0 
    2.1876     0.38901           0 
    2.1756     0.38902           0 
    2.1696     0.39942           0 
    2.1637     0.40988           0 
    2.1998     0.37369           0 
    2.1826     0.37781           0 
    2.1636     0.38903           0 
    2.1696     0.37864           0 
    2.1576     0.39943           0 
    2.1881     0.36797           0 
    2.1517     0.40988           0 
    2.1756     0.36824           0 
    2.1998     0.36163           0 
    2.1576     0.37865           0 
    2.1516     0.38904           0 
    2.1826     0.35848           0 
    2.1636     0.36825           0 
    2.1456     0.39944           0 
    2.1397     0.40988           0 
    2.1696     0.35785           0 
    2.1998     0.34958           0 
    2.1456     0.37866           0 
    2.1875     0.34744           0 
    2.1516     0.36826           0 
    2.1396     0.38905           0 
    2.1755     0.34745           0 
    2.1576     0.35786           0 
    2.1336     0.39944           0 
    2.1277     0.40988           0 
    2.1635     0.34746           0 
    2.1998     0.33752           0 
    2.1396     0.36827           0 
    2.1336     0.37866           0 
    2.1815     0.33706           0 
    2.1456     0.35787           0 
    2.1276     0.38906           0 
    2.1695     0.33707           0 
    2.1515     0.34747           0 
    2.1216     0.39945           0 
    2.1276     0.36827           0 
    2.1875     0.32666           0 
    2.1156     0.40988           0 
    2.1575     0.33708           0 
    2.1336     0.35788           0 
    2.1216     0.37867           0 
    2.1998     0.32546           0 
    2.1755     0.32667           0 
    2.1395     0.34748           0 
    2.1156     0.38907           0 
    2.1635     0.32668           0 
    2.1455     0.33709           0 
    2.1096     0.39947           0 
    2.1216     0.35789           0 
    2.1156     0.36829           0 
    2.1275     0.34749           0 
    2.1096     0.37869           0 
    2.1826      0.3158           0 
    2.1036     0.40988           0 
    2.1515     0.32669           0 
    2.1998      0.3134           0 
    2.1695     0.31628           0 
    2.1335      0.3371           0 
    2.1036     0.38908           0 
    2.1575     0.31629           0 
    2.1395      0.3267           0 
    2.0976     0.39948           0 
    2.1096      0.3579           0 
    2.1875     0.30587           0 
    2.1036      0.3683           0 
    2.1155     0.34751           0 
    2.1755     0.30589           0 
    2.1215     0.33711           0 
    2.0976      0.3787           0 
    2.1455      0.3163           0 
    2.0916     0.40988           0 
    2.1998     0.30134           0 
    2.1635      0.3059           0 
    2.1275     0.32671           0 
    2.0916     0.38909           0 
    2.1515     0.30591           0 
    2.1335     0.31631           0 
    2.0856     0.39949           0 
    2.0976     0.35792           0 
    2.1035     0.34752           0 
    2.1851     0.29511           0 
    2.1095     0.33712           0 
    2.0916     0.36831           0 
    2.1695      0.2955           0 
    2.1155     0.32673           0 
    2.0856      0.3787           0 
    2.0796     0.40988           0 
    2.1398     0.30546           0 
    2.1998     0.28928           0 
    2.1575     0.29551           0 
    2.1215     0.31633           0 
    2.0796     0.38909           0 
    2.0915     0.34753           0 
    2.0975     0.33713           0 
    2.0856     0.35792           0 
    2.1455     0.29552           0 
    2.0736     0.39948           0 
    2.1286     0.30459           0 
    2.1755      0.2851           0 
    2.1035     0.32673           0 
    2.0796     0.36832           0 
    2.1883     0.28276           0 
    2.1649     0.28667           0 
    2.1095     0.31634           0 
    2.0736     0.37871           0 
    2.0676     0.40988           0 
    2.1998     0.27722           0 
    2.1355     0.29284           0 
    2.1155     0.30594           0 
    2.0676     0.38908           0 
    2.0855     0.33714           0 
    2.0796     0.34753           0 
    2.1908      0.2742           0 
    2.1788      0.2753           0 
    2.0915     0.32674           0 
    2.0736     0.35793           0 
    2.1549     0.28083           0 
     2.167     0.27643           0 
    2.0676     0.36832           0 
    2.0975     0.31635           0 
    2.0616     0.39947           0 
     2.126     0.29071           0 
    2.1418     0.28094           0 
    2.1035     0.30595           0 
    2.0616      0.3787           0 
    2.0555     0.40988           0 
    2.1998     0.26516           0 
    2.0556      0.3891           0 
    2.0735     0.33715           0 
    2.1141     0.29178           0 
    2.0795     0.32675           0 
    2.0676     0.34754           0 
    2.1839      0.2644           0 
    2.1719      0.2655           0 
     2.131     0.27982           0 
    2.0855     0.31636           0 
    2.0616     0.35794           0 
      2.16     0.26667           0 
    2.0949     0.30413           0 
    2.0556     0.36835           0 
    2.0496     0.39948           0 
     2.148     0.26779           0 
    2.1191      0.2809           0 
    2.1004     0.29314           0 
    2.0496      0.3787           0 
    2.1361     0.26893           0 
    2.0615     0.33716           0 
    2.0675     0.32676           0 
    2.0435     0.40988           0 
    2.1889      0.2535           0 
    2.1998     0.25311           0 
    2.1769     0.25462           0 
    2.0735     0.31637           0 
    2.0556     0.34756           0 
    2.0829     0.30463           0 
    2.0436     0.38909           0 
    2.1071     0.28198           0 
    2.1649     0.25576           0 
    2.0496     0.35795           0 
    2.1241        0.27           0 
    2.1531      0.2569           0 
    2.0884       0.294           0 
    2.0436     0.36835           0 
    2.0376     0.39948           0 
     2.141     0.25804           0 
    2.1122     0.27109           0 
    2.0376     0.37869           0 
    2.0935      0.2833           0 
    2.1292     0.25914           0 
    2.0555     0.32677           0 
    2.0495     0.33717           0 
    2.0615     0.31638           0 
    2.1819     0.24368           0 
    2.1699     0.24486           0 
    2.0675     0.30598           0 
    2.0436     0.34757           0 
    2.0315     0.40989           0 
    2.1998     0.24105           0 
    2.0765      0.2945           0 
     2.158     0.24596           0 
    2.0316     0.38909           0 
    2.0376     0.35797           0 
    2.0988     0.27264           0 
    2.1173     0.26023           0 
    2.1461     0.24715           0 
    2.0821     0.28395           0 
    2.0316     0.36838           0 
    2.0257     0.39951           0 
    2.1341     0.24823           0 
    2.1044     0.26202           0 
    2.0256     0.37878           0 
    2.0435     0.32679           0 
    2.0495     0.31639           0 
    2.0872      0.2732           0 
    2.0645     0.29514           0 
    2.1868     0.23275           0 
    2.1749     0.23394           0 
    2.0375     0.33718           0 
    2.0555     0.30599           0 
    2.1223     0.24935           0 
     2.163     0.23507           0 
    2.0316     0.34759           0 
    2.0701      0.2846           0 
    2.0195     0.40989           0 
    2.1511     0.23616           0 
    2.1998     0.22899           0 
    2.0196     0.38915           0 
    2.0255       0.358           0 
      2.11     0.25139           0 
    2.0924      0.2625           0 
    2.1391     0.23735           0 
    2.0756     0.27396           0 
    2.0196     0.36841           0 
    2.1272     0.23841           0 
    2.0526     0.29558           0 
    2.0137     0.39952           0 
    2.0375     0.31644           0 
    2.1902     0.22278           0 
    2.0434     0.30604           0 
    2.0315     0.32683           0 
    2.1799     0.22305           0 
     2.098     0.25188           0 
     2.168     0.22414           0 
    2.0136     0.37876           0 
    2.0255     0.33721           0 
    2.0582     0.28499           0 
    2.0809     0.26316           0 
     2.156     0.22535           0 
    2.1153     0.23962           0 
    2.0196     0.34761           0 
    2.1441     0.22642           0 
    2.0636     0.27452           0 
    2.0074     0.40989           0 
    2.1998     0.21693           0 
    2.0136     0.35801           0 
    2.0076     0.38915           0 
     2.086     0.25235           0 
    2.1321     0.22765           0 
    2.1034     0.24065           0 
    2.0689     0.26403           0 
    2.0076      0.3684           0 
    2.0462     0.28541           0 
    2.0314     0.30609           0 
    2.0255     0.31642           0 
    2.1202     0.22869           0 
    2.1872     0.21207           0 
    2.0017     0.39956           0 
     2.173     0.21326           0 
    2.0195     0.32683           0 
    2.0374     0.29567           0 
     2.161     0.21445           0 
    2.0915     0.24185           0 
    2.0135     0.33723           0 
    2.0016      0.3788           0 
    2.0741     0.25324           0 
    2.1491     0.21555           0 
    2.1083     0.22995           0 
    2.0076     0.34764           0 
    2.0494     0.27489           0 
    2.1372     0.21676           0 
    1.9954     0.40989           0 
    2.0016     0.35801           0 
[...]
POINT_DATA 8230
SCALARS pressure double
LOOKUP_TABLE default
 0.00031807 
 0.00043761 
 0.00025702 
 0.00055759 
 0.00071918 
   0.000218 
 0.00041619 
 0.00072784 
 0.00089222 
  0.0010538 
 0.00015006 
 0.00052022 
  0.0010668 
  0.0009003 
  0.0012331 
 0.00036091 
  0.0013977 
 0.00072853 
 0.00013909 
  0.0012433 
  0.0014109 
 0.00050635 
   0.001072 
  0.0015779 
  0.0017447 
 0.00089152 
 0.00019045 
  0.0015886 
  0.0003827 
  0.0014177 
  0.0017569 
 0.00070961 
   0.001242 
  0.0019247 
   0.002093 
  0.0010611 
 0.00018853 
  0.0017654 
   0.001936 
  0.0005335 
  0.0015916 
  0.0021046 
 0.00088078 
  0.0014142 
   0.002273 
  0.0021142 
 0.00038273 
  0.0024426 
  0.0012349 
  0.0019414 
  0.0022846 
  0.0001967 
  0.0007059 
  0.0017666 
  0.0024538 
  0.0010586 
  0.0015885 
  0.0026228 
  0.0022917 
  0.0024639 
   0.002118 
  0.0026345 
 0.00050448 
  0.0027936 
  0.0014109 
 0.00014186 
 0.00088686 
   0.001943 
  0.0028041 
  0.0012411 
  0.0017622 
  0.0029739 
  0.0026429 
 0.00037068 
  0.0028148 
  0.0024697 
 0.00072352 
  0.0022959 
  0.0029855 
  0.0015873 
   0.003146 
 0.00019473 
   0.001068 
  0.0021218 
  0.0031555 
  0.0014214 
  0.0019331 
  0.0033259 
  0.0029948 
  0.0028219 
  0.0004261 
   0.002648 
  0.0031666 
  0.0008985 
  0.0024763 
  0.0033376 
  0.0034989 
  0.0017434 
 0.00018471 
  0.0012482 
  0.0023076 
  0.0035078 
  0.0031748 
  0.0030008 
  0.0033474 
    0.00158 
  0.0036788 
  0.0020944 
 0.00067136 
  0.0028255 
  0.0035193 
 0.00034707 
  0.0010208 
  0.0026579 
  0.0036907 
  0.0038529 
 0.00016541 
  0.0018763 
  0.0024832 
  0.0038613 
  0.0033553 
  0.0035281 
 0.00029355 
 0.00061398 
  0.0031793 
   0.003701 
  0.0013252 
 0.00096626 
  0.0038727 
  0.0030018 
  0.0040326 
  0.0021795 
  0.0016952 
  0.0028001 
  0.0040446 
  0.0042077 
 0.00013262 
   0.004216 
  0.0037094 
  0.0025359 
  0.0035381 
  0.0038824 
 0.00047963 
 0.00083316 
  0.0020438 
   0.003363 
  0.0040554 
  0.0011682 
  0.0031082 
  0.0042275 
  0.0043874 
  0.0015256 
  0.0023754 
  0.0029317 
  0.0043993 
  0.0018926 
   0.004064 
  0.0038905 
  0.0045636 
 0.00036131 
 0.00015303 
 0.00068072 
  0.0037186 
  0.0042376 
  0.0034479 
  0.0045713 
  0.0027351 
  0.0010289 
  0.0044109 
   0.002231 
  0.0013805 
  0.0032858 
  0.0045837 
  0.0047428 
  0.0017413 
  0.0025869 
  0.0047551 
   0.003129 
  0.0020865 
  0.0042455 
  0.0044198 
  0.0040713 
 0.00054164 
 0.00088804 
  0.0038957 
  0.0045938 
  0.0049203 
 0.00012922 
  0.0036258 
  0.0012392 
  0.0049276 
  0.0047674 
  0.0029714 
  0.0024409 
   0.001593 
  0.0034746 
  0.0049405 
  0.0050985 
  0.0019435 
  0.0028135 
  0.0051125 
  0.0046023 
  0.0044285 
  0.0033225 
  0.0039872 
 0.00040817 
 0.00075197 
  0.0047763 
  0.0042557 
  0.0022929 
   0.001098 
  0.0049507 
  0.0038268 
   0.005279 
  0.0014475 
 0.00013402 
  0.0052852 
  0.0051249 
  0.0026531 
   0.003168 
  0.0017999 
  0.0036702 
  0.0052983 
  0.0021538 
  0.0043549 
  0.0054565 
  0.0047862 
 0.00031855 
  0.0046157 
  0.0049613 
 0.00061647 
  0.0030117 
 0.00095802 
  0.0054708 
  0.0051351 
   0.004178 
  0.0035175 
  0.0013063 
  0.0024984 
  0.0053091 
  0.0016563 
  0.0040251 
  0.0056381 
 0.00012548 
  0.0054832 
   0.005644 
  0.0033639 
  0.0020093 
  0.0028546 
   0.003874 
  0.0056572 
  0.0045427 
  0.0049707 
  0.0051447 
  0.0023612 
 0.00039997 
  0.0058159 
 0.00081503 
  0.0053199 
  0.0047968 
  0.0011621 
  0.0032095 
  0.0054939 
  0.0058303 
  0.0037194 
  0.0015124 
   0.002713 
  0.0056686 
   0.004447 
  0.0018596 
  0.0059988 
  0.0058428 
  0.0042733 
 0.00012234 
  0.0060041 
  0.0022134 
  0.0035659 
  0.0030654 
  0.0053302 
  0.0060173 
  0.0040996 
   0.005156 
  0.0055045 
 0.00067417 
 0.00034086 
  0.0010193 
  0.0056793 
  0.0025737 
  0.0049837 
  0.0013687 
  0.0061771 
  0.0058534 
  0.0048097 
  0.0034062 
  0.0017243 
  0.0061912 
   0.003908 
  0.0060293 
  0.0046344 
  0.0029165 
  0.0020576 
  0.0063615 
   0.006204 
  0.0044587 
 0.00011008 
  0.0063658 
  0.0024365 
  0.0037555 
  0.0055142 
  0.0056901 
  0.0032683 
 0.00052566 
 0.00087075 
  0.0053414 
  0.0058649 
  0.0012206 
  0.0063786 
  0.0042854 
   0.005166 
  0.0060397 
  0.0015722 
  0.0027924 
  0.0065398 
  0.0062145 
  0.0049922 
  0.0019165 
  0.0036168 
  0.0065539 
  0.0041109 
  0.0063907 
  0.0048174 
  0.0065664 
  0.0046433 
  0.0067264 
  0.0032083 
  0.0058747 
 0.00034728 
  0.0067295 
 0.00011457 
  0.0057006 
  0.0060509 
  0.0035008 
 0.00072445 
  0.0026452 
  0.0010739 
  0.0039737 
  0.0055262 
  0.0062257 
  0.0023596 
  0.0014273 
  0.0053506 
  0.0064015 
  0.0067412 
  0.0044706 
  0.0017714 
  0.0029958 
  0.0065766 
  0.0051768 
  0.0069055 
  0.0038177 
  0.0069181 
  0.0043036 
  0.0067535 
  0.0050018 
  0.0022043 
  0.0062351 
  0.0060614 
 0.00057691 
  0.0069298 
  0.0058861 
  0.0048273 
  0.0064124 
 0.00092591 
  0.0036243 
   0.007095 
  0.0012786 
   0.005711 
  0.0070958 
  0.0065876 
  0.0001123 
  0.0041362 
  0.0016243 
  0.0025393 
  0.0067638 
  0.0055358 
  0.0071039 
  0.0046566 
  0.0034126 
  0.0028636 
  0.0069399 
  0.0053624 
  0.0020201 
  0.0072748 
  0.0039607 
  0.0071173 
  0.0072837 
  0.0051866 
  0.0044872 
  0.0064214 
  0.0032336 
  0.0065977 
  0.0062477 
  0.0023655 
 0.00039181 
 0.00078327 
  0.0011299 
  0.0067738 
  0.0060699 
  0.0014793 
  0.0072938 
  0.0050111 
  0.0058953 
  0.0069495 
  0.0037906 
  0.0074684 
  0.0074644 
 0.00012344 
   0.004316 
  0.0027023 
   0.007127 
  0.0057228 
  0.0018372 
  0.0048434 
  0.0074649 
  0.0073038 
  0.0055473 
  0.0036076 
  0.0021833 
 0.00028945 
  0.0076506 
  0.0030637 
 0.00094772 
  0.0041474 
 0.00061452 
  0.0074816 
  0.0053708 
  0.0067846 
  0.0076479 
  0.0066084 
  0.0046713 
  0.0064296 
  0.0069603 
  0.0012915 
  0.0062565 
  0.0071365 
  0.0025325 
  0.0016496 
  0.0073131 
  0.0076556 
   0.006084 
   0.005199 
  0.0034239 
  0.0039612 
  0.0078372 
  0.0045024 
   0.007843 
 0.00014062 
  0.0074914 
  0.0059094 
  0.0028874 
  0.0020004 
  0.0050301 
  0.0078003 
  0.0076705 
  0.0057334 
 0.00076714 
  0.0004292 
  0.0023528 
   0.004313 
  0.0037721 
  0.0011129 
  0.0069709 
   0.006791 
  0.0071469 
  0.0032472 
  0.0055572 
  0.0066181 
  0.0073237 
  0.0078529 
  0.0080706 
  0.0080261 
    0.00147 
  0.0048578 
  0.0075001 
  0.0064452 
  0.0027078 
   0.001824 
  0.0062687 
  0.0076767 
  0.0080341 
  0.0041234 
  0.0053877 
  0.0036028 
  0.0081936 
  0.0046714 
  0.0078563 
   0.006094 
 0.00013097 
  0.0021768 
  0.0081495 
  0.0030597 
 0.00096286 
 0.00063266 
  0.0052018 
  0.0059184 
  0.0080381 
  0.0083116 
  0.0071547 
 0.00033998 
  0.0073336 
  0.0012923 
  0.0069809 
  0.0075104 
  0.0025313 
  0.0039531 
  0.0044827 
  0.0076871 
  0.0068081 
  0.0034134 
  0.0057383 
  0.0082252 
  0.0016391 
  0.0050277 
  0.0078626 
  0.0066316 
  0.0028869 
  0.0080394 
  0.0064562 
  0.0019919 
  0.0055586 
  0.0084019 
   0.004298 
   0.008512 
  0.0085352 
  0.0037686 
  0.0082199 
  0.0062803 
  0.0048408 
  0.0085576 
 0.00080848 
  0.0023442 
 0.00017859 
  0.0032371 
  0.0011243 
  0.0053769 
  0.0075178 
  0.0073433 
   0.006099 
   0.007695 
  0.0083986 
  0.0004537 
   0.007171 
   0.007875 
  0.0014624 
  0.0026973 
  0.0069932 
  0.0080538 
  0.0041211 
  0.0046551 
  0.0035807 
  0.0018086 
  0.0059209 
  0.0085769 
  0.0087111 
  0.0082251 
  0.0068193 
  0.0051974 
  0.0030518 
  0.0084033 
  0.0066429 
  0.0021626 
   0.008762 
  0.0057365 
  0.0044692 
  0.0039347 
 0.00083528 
  0.0064602 
  0.0085784 
  0.0050142 
   0.008894 
  0.0025184 
  0.0077079 
  0.0078825 
 0.00015721 
  0.0012724 
  0.0034033 
  0.0080556 
  0.0075337 
  0.0089208 
  0.0073531 
  0.0055541 
  0.0062818 
  0.0087498 
  0.0082401 
  0.0016301 
  0.0089407 
  0.0071797 
  0.0028642 
  0.0084184 
  0.0042895 
  0.0048262 
  0.0019831 
 0.00043709 
   0.008589 
  0.0070029 
   0.003749 
   0.006099 
  0.0089404 
  0.0053694 
  0.0068233 
  0.0087611 
  0.0091212 
  0.0032159 
  0.0023346 
  0.0059155 
  0.0011066 
  0.0091444 
 0.00076423 
  0.0046481 
  0.0066406 
  0.0041038 
  0.0089438 
  0.0080742 
  0.0078931 
  0.0082476 
  0.0051823 
  0.0026848 
  0.0092719 
  0.0077186 
  0.0084234 
  0.0014554 
   0.003571 
 0.00015911 
  0.0075381 
  0.0093069 
  0.0086054 
  0.0064611 
  0.0057357 
  0.0018028 
  0.0091369 
  0.0073668 
  0.0093174 
   0.008801 
  0.0030314 
  0.0021475 
  0.0044583 
  0.0071871 
  0.0050036 
  0.0062828 
  0.0039227 
  0.0089746 
  0.0093365 
 0.00055621 
   0.005531 
   0.007006 
 0.00091295 
  0.0033794 
  0.0024991 
  0.0095017 
  0.0091418 
   0.008258 
  0.0012721 
  0.0060894 
  0.0084329 
  0.0080808 
  0.0086117 
  0.0068246 
  0.0048127 
  0.0042654 
  0.0079071 
  0.0095482 
  0.0087966 
  0.0016237 
  0.0093213 
  0.0028524 
  0.0053665 
  0.0096398 
  0.0037296 
  0.0077333 
  0.0089803 
 0.00018569 
  0.0096787 
  0.0066433 
  0.0019718 
  0.0058906 
  0.0075515 
  0.0095087 
  0.0091518 
 0.00037756 
  0.0096903 
  0.0032059 
  0.0046205 
  0.0023171 
  0.0073706 
   0.009346 
  0.0051704 
  0.0064669 
  0.0040888 
 0.00074148 
  0.0010842 
  0.0071876 
  0.0097242 
  0.0057142 
  0.0094988 
  0.0014344 
   0.003551 
  0.0026673 
  0.0087907 
    0.00844 
  0.0086201 
  0.0098697 
  0.0082735 
  0.0089778 
  0.0070069 
  0.0080997 
  0.0091435 
  0.0062424 
  0.0096895 
  0.0017863 
  0.0049772 
  0.0044348 
  0.0079132 
  0.0030206 
  0.0055304 
  0.0093118 
   0.010008 
  0.0038913 
  0.0021393 
 0.00017786 
  0.0099512 
  0.0068219 
  0.0095038 
   0.010047 
  0.0060454 
  0.0077359 
  0.0098907 
 0.00051961 
   0.010061 
  0.0033746 
  0.0075524 
  0.0024849 
  0.0047811 
  0.0096865 
 0.00091493 
  0.0053294 
  0.0066483 
  0.0042634 
  0.0012614 
  0.0089771 
  0.0088078 
  0.0091613 
  0.0073705 
  0.0086397 
  0.0098628 
  0.0015995 
  0.0058711 
  0.0028347 
  0.0037282 
  0.0084643 
  0.0093463 
   0.010237 
  0.0094921 
  0.0082767 
   0.010141 
  0.0096621 
  0.0063838 
  0.0019422 
   0.007186 
  0.0081002 
    0.00514 
  0.0046149 
   0.010059 
  0.0032004 
  0.0056768 
   0.010279 
   0.010379 
  0.0022956 
  0.0061979 
   0.004091 
  0.0079302 
  0.0098796 
  0.0069942 
 0.00036488 
   0.000186 
   0.010419 
 0.00072743 
   0.010033 
   0.001081 
   0.010433 
  0.0035549 
  0.0077349 
  0.0026534 
   0.010301 
  0.0044478 
  0.0049699 
  0.0093424 
   0.009175 
  0.0014248 
  0.0090014 
  0.0068145 
  0.0055005 
  0.0088188 
  0.0095288 
   0.010433 
  0.0075509 
  0.0017619 
  0.0086432 
   0.010174 
  0.0096953 
  0.0060377 
  0.0098179 
  0.0030054 
  0.0039086 
  0.0084672 
   0.010612 
  0.0065298 
   0.010061 
  0.0021019 
  0.0073713 
  0.0082942 
   0.010647 
  0.0053236 
   0.010545 
  0.0047918 
  0.0024568 
   0.010427 
  0.0033818 
  0.0058622 
 0.00054079 
   0.010249 
 0.00089066 
  0.0042403 
   0.010752 
  0.0081217 
  0.0063851 
 0.00017535 
   0.010792 
  0.0012409 
   0.010416 
  0.0071629 
  0.0079123 
  0.0093724 
    0.01081 
  0.0037354 
  0.0097154 
  0.0095616 
  0.0028073 
  0.0091855 
  0.0069139 
  0.0015909 
  0.0045829 
  0.0051341 
    0.01018 
   0.010532 
  0.0090115 
  0.0099044 
   0.010686 
   0.010048 
  0.0056841 
  0.0088225 
  0.0019427 
    0.01083 
  0.0077298 
  0.0062229 
  0.0086377 
  0.0040738 
  0.0031608 
   0.002272 
   0.010987 
   0.010406 
  0.0067408 
  0.0084706 
  0.0075457 
 0.00039498 
  0.0049324 
 0.00072793 
  0.0043581 
   0.011005 
  0.0054794 
   0.010919 
  0.0025905 
  0.0035547 
    0.01059 
   0.001061 
   0.006033 
   0.008283 
   0.010789 
   0.011126 
  0.0073574 
  0.0065831 
  0.0014087 
   0.010094 
   0.010771 
  0.0095544 
  0.0097444 
 0.00019922 
  0.0099207 
   0.011166 
   0.009375 
  0.0080949 
   0.010242 
  0.0039021 
  0.0017681 
   0.011183 
  0.0091932 
  0.0070944 
  0.0029518 
  0.0047386 
   0.010546 
  0.0052856 
  0.0090017 
   0.011073 
  0.0058447 
  0.0021111 
  0.0063822 
  0.0079123 
   0.011194 
  0.0088346 
   0.010697 
  0.0042405 
  0.0024582 
 0.00044701 
  0.0069342 
    0.01136 
  0.0086585 
  0.0077265 
 0.00089379 
  0.0033511 
  0.0050932 
  0.0012366 
    0.01138 
  0.0074719 
  0.0027844 
  0.0056349 
   0.010933 
  0.0084693 
  0.0037068 
   0.011321 
    0.01013 
  0.0062253 
  0.0099548 
   0.011203 
   0.010287 
  0.0097484 
  0.0015954 
   0.010434 
   0.011501 
  0.0067461 
   0.011148 
  0.0095657 
  0.0030762 
  0.0093699 
   0.010707 
 0.00021697 
    0.01154 
  0.0082752 
  0.0019432 
  0.0040772 
  0.0060372 
   0.011555 
  0.0072924 
   0.010881 
  0.0091991 
  0.0045895 
  0.0054513 
  0.0022951 
   0.011404 
  0.0090081 
    0.00809 
  0.0065872 
   0.011071 
   0.011577 
 0.00039555 
   0.000721 
  0.0026477 
  0.0049564 
  0.0088369 
   0.011265 
  0.0010703 
  0.0071042 
   0.011734 
  0.0079014 
   0.010173 
  0.0014207 
   0.010335 
   0.010524 
  0.0063893 
  0.0029896 
   0.010699 
    0.01175 
  0.0099383 
  0.0076531 
  0.0058022 
  0.0086467 
  0.0052983 
   0.010879 
  0.0036601 
  0.0097318 
  0.0017768 
  0.0033218 
  0.0044591 
  0.0069438 
   0.011876 
  0.0095666 
   0.011449 
   0.011071 
   0.011753 
  0.0093549 
  0.0021211 
  0.0084524 
   0.011566 
   0.011915 
 0.00024445 
   0.011247 
  0.0061909 
  0.0074707 
   0.011929 
  0.0040526 
  0.0024707 
 0.00052909 
  0.0092011 
  0.0048201 
   0.011424 
  0.0082671 
  0.0056433 
   0.011759 
  0.0067491 
    0.01194 
  0.0012588 
 0.00091506 
  0.0028245 
  0.0051662 
  0.0090236 
   0.011601 
   0.010534 
   0.010358 
   0.010716 
  0.0015903 
  0.0073019 
   0.011926 
   0.010895 
    0.01211 
  0.0059949 
  0.0080809 
   0.011087 
   0.010095 
  0.0088506 
  0.0031729 
  0.0065493 
   0.012122 
   0.011799 
  0.0055166 
   0.011269 
  0.0078396 
  0.0099273 
  0.0019435 
  0.0035187 
  0.0097238 
  0.0086383 
  0.0044174 
   0.011442 
  0.0071063 
   0.012253 
  0.0022937 
   0.012136 
   0.011963 
  0.0095655 
   0.012291 
   0.011618 
 0.00031277 
 0.00042904 
  0.0038666 
 0.00072979 
  0.0076647 
  0.0063553 
   0.012304 
  0.0026486 
  0.0084866 
  0.0010898 
   0.004782 
  0.0093819 
   0.011796 
  0.0058584 
  0.0014219 
   0.012163 
  0.0069136 
   0.012316 
   0.010723 
   0.010906 
  0.0030011 
  0.0042077 
   0.010542 
    0.01109 
  0.0082821 
  0.0017619 
  0.0053802 
  0.0092079 
   0.011983 
  0.0033533 
   0.011276 
  0.0051193 
  0.0074667 
    0.01146 
   0.010292 
  0.0021324 
   0.012486 
   0.006171 
  0.0090085 
    0.01234 
   0.010077 
    0.01164 
  0.0045565 
   0.012165 
  0.0067171 
   0.012499 
  0.0098866 
  0.0057071 
  0.0080349 
  0.0036966 
  0.0024915 
   0.011816 
  0.0097078 
  0.0072785 
  0.0088422 
    0.01263 
   0.012514 
    0.01235 
  0.0028493 
   0.011995 
   0.012667 
  0.0040395 
  0.0095461 
  0.0086414 
  0.0065297 
   0.012682 
  0.0078323 
   0.012177 
   0.004884 
  0.0060439 
   0.003222 
   0.011096 
   0.010913 
   0.011281 
  0.0054596 
   0.012536 
    0.01073 
  0.0070839 
   0.011466 
   0.012695 
  0.0093779 
   0.011651 
  0.0043514 
   0.008441 
   0.010404 
    0.01236 
   0.011833 
  0.0035612 
  0.0076487 
  0.0091797 
  0.0063854 
   0.010257 
   0.012863 
   0.012014 
   0.012714 
   0.010072 
   0.012544 
  0.0046592 
  0.0068917 
   0.012878 
   0.012193 
  0.0082722 
  0.0039115 
  0.0052387 
  0.0099072 
  0.0090109 
    0.00584 
  0.0074481 
   0.012374 
   0.012893 
   0.012728 
   0.013008 
   0.013045 
  0.0097403 
   0.010784 
  0.0088052 
  0.0042435 
   0.011286 
   0.011471 
   0.011105 
   0.011657 
    0.01306 
   0.012557 
  0.0080027 
  0.0067107 
  0.0095297 
   0.011842 
  0.0049966 
   0.012911 
   0.010605 
   0.012026 
  0.0072548 
   0.013075 
  0.0064617 
    0.01274 
   0.010444 
   0.012209 
  0.0086417 
  0.0045735 
  0.0056064 
  0.0078175 
  0.0093587 
   0.012391 
   0.013242 
   0.010272 
   0.013091 
  0.0062063 
   0.012923 
   0.012572 
  0.0091676 
  0.0070634 
   0.013257 
  0.0084412 
   0.010076 
   0.004908 
  0.0076264 
   0.012754 
   0.013106 
   0.013272 
   0.013386 
  0.0099011 
    0.01166 
   0.011472 
   0.011847 
   0.011286 
   0.012033 
   0.013423 
  0.0059738 
  0.0089913 
   0.011102 
   0.012219 
   0.012936 
  0.0096949 
  0.0068294 
  0.0082627 
    0.01344 
   0.010796 
   0.012403 
  0.0053518 
   0.013289 
  0.0074308 
   0.010626 
   0.013455 
   0.012586 
  0.0088065 
   0.013119 
   0.009537 
   0.012769 
  0.0080693 
   0.010446 
  0.0066286 
    0.01347 
   0.013622 
   0.013302 
  0.0057108 
   0.012951 
  0.0093484 
   0.010263 
  0.0072307 
   0.013638 
    0.00863 
   0.010063 
  0.0063245 
   0.013134 
   0.011847 
   0.012036 
   0.011658 
   0.012224 
   0.013485 
  0.0078963 
   0.011468 
    0.01241 
   0.013653 
   0.013766 
    0.01128 
   0.012597 
  0.0091702 
  0.0084409 
   0.013803 
   0.013317 
   0.010985 
  0.0060446 
  0.0098672 
   0.012781 
   0.013822 
   0.013668 
   0.010816 
   0.012965 
  0.0089887 
   0.007707 
   0.013836 
   0.013499 
  0.0070433 
   0.013149 
    0.01066 
  0.0097262 
  0.0082634 
  0.0064204 
   0.013851 
   0.014007 
   0.013331 
   0.013683 
   0.010427 
  0.0095359 
   0.010228 
  0.0088093 
   0.012224 
    0.01402 
   0.012033 
   0.012413 
   0.011842 
   0.012601 
  0.0075265 
   0.013514 
   0.011651 
   0.012789 
  0.0080784 
   0.013866 
   0.011461 
   0.012975 
   0.014035 
   0.014152 
  0.0093528 
  0.0068077 
   0.013698 
   0.011262 
  0.0086248 
   0.013161 
   0.014198 
   0.014203 
   0.010109 
   0.011075 
   0.013345 
    0.01405 
  0.0073548 
   0.013881 
  0.0091717 
  0.0078972 
   0.014219 
   0.010888 
   0.013529 
  0.0099072 
  0.0084448 
  0.0071223 
   0.010693 
   0.013712 
   0.014233 
   0.014064 
   0.012411 
   0.012601 
   0.014384 
   0.012219 
   0.012791 
  0.0097233 
   0.010462 
   0.012028 
    0.01298 
  0.0089998 
   0.014403 
   0.011838 
   0.013168 
   0.013896 
  0.0077268 
   0.011648 
   0.013355 
  0.0082582 
   0.014248 
   0.014418 
   0.011453 
   0.013541 
   0.014547 
  0.0095444 
    0.01408 
  0.0075155 
  0.0088105 
   0.011262 
   0.013726 
   0.014587 
    0.01036 
   0.014432 
   0.014634 
   0.014263 
   0.011073 
  0.0093696 
   0.013911 
   0.014603 
  0.0080913 
  0.0086297 
   0.012789 
   0.012597 
    0.01298 
   0.010884 
   0.014094 
   0.012406 
   0.013171 
   0.014617 
   0.014447 
  0.0078909 
   0.012214 
    0.01336 
   0.014776 
  0.0099017 
   0.012023 
   0.013548 
   0.010716 
   0.010267 
  0.0091766 
   0.014788 
   0.014278 
   0.011831 
   0.013736 
  0.0084548 
   0.014631 
   0.011639 
   0.013922 
   0.014802 
  0.0097352 
   0.014462 
   0.014928 
   0.011448 
   0.014108 
  0.0089959 
  0.0082578 
   0.014975 
   0.014816 
   0.015028 
    0.01126 
   0.014646 
   0.014293 
  0.0095425 
   0.014988 
   0.012976 
   0.013168 
   0.012784 
    0.01336 
   0.012591 
   0.013551 
   0.010772 
   0.010297 
   0.011077 
   0.014477 
   0.012399 
   0.013741 
  0.0088301 
   0.014831 
   0.015002 
   0.012207 
    0.01393 
   0.015163 
   0.010103 
  0.0093741 
   0.014662 
   0.012015 
   0.008613 
   0.014118 
   0.015175 
   0.011824 
   0.014305 
   0.015016 
   0.015188 
  0.0091966 
   0.014846 
  0.0099141 
   0.015315 
   0.011634 
   0.014491 
   0.010662 
   0.015362 
   0.015201 
   0.011446 
   0.013355 
   0.014677 
   0.013162 
   0.013548 
   0.015031 
   0.015414 
   0.012969 
    0.01374 
  0.0097405 
  0.0090177 
   0.010477 
   0.012776 
   0.013932 
   0.015375 
   0.012584 
   0.014122 
   0.011252 
   0.014861 
   0.012392 
   0.014312 
   0.015216 
   0.015388 
   0.010279 
   0.015549 
  0.0095543 
     0.0122 
   0.014501 
   0.011045 
   0.015046 
   0.015562 
   0.012009 
   0.014688 
   0.015401 
  0.0093573 
   0.015574 
   0.015231 
   0.010105 
   0.011819 
   0.014875 
   0.010836 
   0.015701 
   0.013542 
   0.013735 
   0.013348 
   0.013929 
   0.013155 
   0.011628 
   0.014122 
   0.015748 
   0.015061 
   0.015588 
   0.015416 
   0.012962 
   0.014314 