# vtk DataFile Version 2.0
Steady-state stabilized finite element formulation for the 2D incopmpressible Navier Stokes equations
ASCII

DATASET UNSTRUCTURED_GRID
POINTS 8230 double
   2.1969     0.40798           0 
   2.1849       0.408           0 
   2.1969     0.39592           0 
   2.1787     0.39753           0 
   2.1729     0.40801           0 
   2.1969     0.38386           0 
   2.1847     0.38713           0 
   2.1727     0.38715           0 
   2.1667     0.39755           0 
   2.1609     0.40802           0 
   2.1969      0.3718           0 
   2.1797     0.37593           0 
   2.1607     0.38717           0 
   2.1667     0.37677           0 
   2.1547     0.39758           0 
   2.1852     0.36609           0 
   2.1489     0.40803           0 
   2.1727     0.36637           0 
   2.1969     0.35974           0 
   2.1547      0.3768           0 
   2.1487     0.38719           0 
   2.1797      0.3566           0 
   2.1607     0.36639           0 
   2.1427      0.3976           0 
   2.1368     0.40804           0 
   2.1666     0.35598           0 
   2.1969     0.34769           0 
   2.1427     0.37682           0 
   2.1846     0.34556           0 
   2.1487     0.36641           0 
   2.1367     0.38721           0 
   2.1726     0.34558           0 
   2.1546     0.35601           0 
   2.1307     0.39761           0 
   2.1248     0.40806           0 
   2.1606      0.3456           0 
   2.1969     0.33563           0 
   2.1367     0.36643           0 
   2.1307     0.37683           0 
   2.1786     0.33518           0 
   2.1426     0.35603           0 
   2.1247     0.38724           0 
   2.1666      0.3352           0 
   2.1486     0.34562           0 
   2.1187     0.39763           0 
   2.1247     0.36645           0 
   2.1846     0.32478           0 
   2.1128     0.40807           0 
   2.1546     0.33523           0 
   2.1306     0.35605           0 
   2.1187     0.37685           0 
   2.1969     0.32357           0 
   2.1726      0.3248           0 
   2.1366     0.34564           0 
   2.1127     0.38726           0 
   2.1606     0.32482           0 
   2.1426     0.33525           0 
   2.1067     0.39766           0 
   2.1186     0.35607           0 
   2.1127     0.36648           0 
   2.1246     0.34567           0 
   2.1067     0.37688           0 
   2.1796     0.31392           0 
   2.1008     0.40808           0 
   2.1486     0.32484           0 
   2.1968     0.31151           0 
   2.1666     0.31441           0 
   2.1306     0.33527           0 
   2.1007     0.38728           0 
   2.1546     0.31444           0 
   2.1366     0.32486           0 
   2.0947     0.39769           0 
   2.1066     0.35609           0 
   2.1845     0.30399           0 
   2.1007      0.3665           0 
   2.1126      0.3457           0 
   2.1725     0.30402           0 
   2.1186     0.33529           0 
   2.0947     0.37691           0 
   2.1426     0.31446           0 
   2.0887     0.40809           0 
   2.1968     0.29945           0 
   2.1605     0.30404           0 
   2.1246     0.32489           0 
   2.0887      0.3873           0 
   2.1485     0.30406           0 
   2.1306     0.31448           0 
   2.0827     0.39771           0 
   2.0946     0.35613           0 
   2.1006     0.34572           0 
   2.1822     0.29323           0 
   2.1066     0.33531           0 
   2.0887     0.36652           0 
   2.1665     0.29363           0 
   2.1126     0.32492           0 
   2.0827     0.37692           0 
   2.0767      0.4081           0 
   2.1369     0.30362           0 
   2.1968     0.28739           0 
   2.1545     0.29366           0 
   2.1186     0.31451           0 
   2.0767     0.38731           0 
   2.0886     0.34574           0 
   2.0946     0.33534           0 
   2.0826     0.35614           0 
   2.1425     0.29368           0 
   2.0707     0.39771           0 
   2.1257     0.30277           0 
   2.1725     0.28323           0 
   2.1006     0.32493           0 
   2.0767     0.36654           0 
   2.1853     0.28088           0 
   2.1619     0.28481           0 
   2.1066     0.31453           0 
   2.0707     0.37694           0 
   2.0647     0.40812           0 
   2.1968     0.27533           0 
   2.1325     0.29101           0 
   2.1126     0.30413           0 
   2.0647     0.38732           0 
   2.0826     0.33536           0 
   2.0766     0.34575           0 
   2.1878     0.27231           0 
   2.1759     0.27342           0 
   2.0886     0.32495           0 
   2.0706     0.35616           0 
   2.1519     0.27898           0 
    2.164     0.27457           0 
   2.0647     0.36656           0 
   2.0946     0.31456           0 
   2.0587     0.39771           0 
    2.123     0.28889           0 
   2.1389      0.2791           0 
   2.1006     0.30415           0 
   2.0587     0.37694           0 
   2.0527     0.40813           0 
   2.1968     0.26327           0 
   2.0527     0.38735           0 
   2.0706     0.33538           0 
   2.1111     0.28997           0 
   2.0766     0.32497           0 
   2.0646     0.34578           0 
   2.1809     0.26252           0 
   2.1689     0.26363           0 
    2.128     0.27799           0 
   2.0826     0.31458           0 
   2.0587     0.35618           0 
    2.157     0.26481           0 
   2.0919     0.30234           0 
   2.0527      0.3666           0 
   2.0467     0.39773           0 
    2.145     0.26595           0 
   2.1161     0.27908           0 
   2.0974     0.29134           0 
   2.0467     0.37695           0 
   2.1331      0.2671           0 
   2.0586      0.3354           0 
   2.0646       0.325           0 
   2.0407     0.40814           0 
   2.1859     0.25161           0 
   2.1968     0.25122           0 
   2.1739     0.25275           0 
   2.0706      0.3146           0 
   2.0526     0.34581           0 
   2.0799     0.30285           0 
   2.0407     0.38735           0 
   2.1042     0.28018           0 
   2.1619      0.2539           0 
   2.0467      0.3562           0 
   2.1211     0.26818           0 
   2.1501     0.25505           0 
   2.0854     0.29222           0 
   2.0407     0.36661           0 
   2.0347     0.39775           0 
    2.138      0.2562           0 
   2.1092     0.26928           0 
   2.0347     0.37696           0 
   2.0906     0.28151           0 
   2.1262     0.25731           0 
   2.0526     0.32502           0 
   2.0466     0.33542           0 
   2.0586     0.31462           0 
   2.1789      0.2418           0 
   2.1669     0.24299           0 
   2.0646     0.30422           0 
   2.0406     0.34583           0 
   2.0286     0.40815           0 
   2.1968     0.23916           0 
   2.0735     0.29273           0 
    2.155     0.24411           0 
   2.0287     0.38735           0 
   2.0347     0.35624           0 
   2.0959     0.27085           0 
   2.1143     0.25842           0 
    2.143     0.24531           0 
   2.0791     0.28217           0 
   2.0287     0.36664           0 
   2.0228     0.39778           0 
   2.1311      0.2464           0 
   2.1014     0.26022           0 
   2.0227     0.37705           0 
   2.0406     0.32505           0 
   2.0466     0.31464           0 
   2.0842     0.27142           0 
   2.0616     0.29338           0 
   2.1838     0.23087           0 
   2.1719     0.23207           0 
   2.0346     0.33545           0 
   2.0526     0.30424           0 
   2.1193     0.24753           0 
     2.16     0.23321           0 
   2.0286     0.34585           0 
   2.0672     0.28283           0 
   2.0166     0.40816           0 
   2.1481     0.23431           0 
   2.1968      0.2271           0 
   2.0167     0.38742           0 
   2.0226     0.35627           0 
    2.107     0.24958           0 
   2.0894     0.26071           0 
   2.1361     0.23551           0 
   2.0727     0.27219           0 
   2.0167     0.36668           0 
   2.1242     0.23659           0 
   2.0496     0.29383           0 
   2.0108      0.3978           0 
   2.0345     0.31471           0 
   2.1872     0.22089           0 
   2.0405      0.3043           0 
   2.0285     0.32509           0 
   2.1769     0.22117           0 
    2.095     0.25009           0 
   2.1649     0.22228           0 
   2.0107     0.37704           0 
   2.0226     0.33548           0 
   2.0552     0.28324           0 
   2.0779     0.26138           0 
    2.153      0.2235           0 
   2.1123     0.23781           0 
   2.0166     0.34588           0 
    2.141     0.22458           0 
   2.0607     0.27276           0 
   2.0046     0.40818           0 
   2.1967     0.21504           0 
   2.0107     0.35629           0 
   2.0047     0.38744           0 
    2.083     0.25057           0 
   2.1291     0.22582           0 
   2.1004     0.23885           0 
   2.0659     0.26227           0 
   2.0047     0.36669           0 
   2.0432     0.28367           0 
   2.0285     0.30435           0 
   2.0225     0.31469           0 
   2.1172     0.22687           0 
   2.1842     0.21019           0 
   1.9988     0.39785           0 
   2.1699     0.21139           0 
   2.0166      0.3251           0 
   2.0344     0.29394           0 
    2.158     0.21259           0 
   2.0885     0.24006           0 
   2.0106     0.33551           0 
   1.9987     0.37709           0 
   2.0711     0.25147           0 
   2.1461      0.2137           0 
   2.1053     0.22815           0 
   2.0046     0.34593           0 
   2.0464     0.27314           0 
   2.1341     0.21493           0 
   1.9926     0.40819           0 
   1.9987      0.3563           0 
   2.0524     0.26275           0 
   2.1967     0.20298           0 
   1.9927     0.38749           0 
   2.1222     0.21603           0 
   2.0762     0.24079           0 
   2.0933     0.22919           0 
   2.0165     0.30432           0 
   1.9927     0.36673           0 
[...]
POINT_DATA 8230
SCALARS pressure double
LOOKUP_TABLE default
 0.00031167 
 0.00042824 
 0.00025189 
 0.00054534 
  0.0007035 
 0.00021393 
 0.00040717 
 0.00071172 
 0.00087256 
  0.0010307 
 0.00014771 
 0.00050887 
  0.0010431 
 0.00088023 
  0.0012058 
 0.00035343 
  0.0013669 
 0.00071237 
 0.00013689 
  0.0012155 
  0.0013795 
 0.00049543 
   0.001048 
  0.0015429 
   0.001706 
 0.00087167 
 0.00018623 
   0.001553 
 0.00037458 
  0.0013859 
  0.0017176 
   0.000694 
  0.0012141 
  0.0018818 
  0.0020464 
  0.0010374 
 0.00018369 
  0.0017257 
  0.0018926 
 0.00052191 
  0.0015558 
  0.0020575 
 0.00086127 
  0.0013824 
  0.0022223 
  0.0020665 
 0.00037455 
  0.0023881 
  0.0012072 
  0.0018975 
  0.0022332 
 0.00019164 
 0.00069042 
  0.0017267 
  0.0023987 
  0.0010349 
  0.0015527 
  0.0025641 
  0.0022399 
  0.0024083 
    0.00207 
  0.0025751 
 0.00049359 
  0.0027311 
  0.0013792 
 0.00013863 
 0.00086706 
   0.001899 
  0.0027411 
  0.0012131 
  0.0017224 
  0.0029072 
   0.002583 
 0.00036276 
  0.0027511 
  0.0024137 
  0.0007073 
  0.0022438 
  0.0029181 
  0.0015514 
  0.0030754 
 0.00018927 
  0.0010439 
  0.0020737 
  0.0030844 
   0.001389 
  0.0018895 
  0.0032511 
  0.0029269 
  0.0027579 
 0.00041695 
  0.0025879 
  0.0030949 
 0.00087799 
  0.0024199 
  0.0032622 
  0.0034203 
   0.001704 
 0.00017963 
  0.0012199 
  0.0022549 
  0.0034287 
  0.0031026 
  0.0029325 
  0.0032714 
  0.0015442 
  0.0035959 
  0.0020468 
 0.00065685 
  0.0027612 
  0.0034395 
 0.00033966 
 0.00099794 
  0.0025972 
  0.0036072 
  0.0037661 
 0.00016134 
  0.0018337 
  0.0024265 
   0.003774 
  0.0032789 
  0.0034478 
 0.00028721 
 0.00060018 
  0.0031069 
  0.0036169 
  0.0012951 
 0.00094416 
  0.0037848 
  0.0029334 
  0.0039415 
  0.0021299 
  0.0016564 
  0.0027365 
  0.0039529 
  0.0041127 
 0.00013032 
  0.0041205 
  0.0036248 
  0.0024779 
  0.0034573 
  0.0037939 
 0.00046875 
 0.00081386 
  0.0019968 
  0.0032862 
  0.0039631 
  0.0011415 
  0.0030371 
  0.0041314 
  0.0042882 
  0.0014906 
  0.0023212 
  0.0028645 
  0.0042994 
  0.0018489 
  0.0039712 
  0.0038016 
  0.0044604 
 0.00035308 
 0.00015083 
 0.00066484 
  0.0036335 
   0.004141 
   0.003369 
  0.0044676 
  0.0026724 
  0.0010051 
  0.0043103 
  0.0021799 
  0.0013487 
  0.0032106 
  0.0044793 
  0.0046353 
  0.0017011 
  0.0025276 
   0.004647 
  0.0030573 
  0.0020385 
  0.0041484 
  0.0043188 
  0.0039782 
 0.00052863 
 0.00086728 
  0.0038066 
  0.0044889 
  0.0048088 
 0.00012787 
  0.0035429 
  0.0012104 
  0.0048156 
  0.0046586 
  0.0029033 
  0.0023849 
  0.0015561 
  0.0033949 
  0.0048279 
  0.0049828 
  0.0018986 
   0.002749 
  0.0049961 
   0.004497 
  0.0043271 
  0.0032463 
  0.0038959 
 0.00039817 
  0.0007342 
  0.0046671 
  0.0041582 
  0.0022401 
  0.0010723 
  0.0048376 
  0.0037391 
  0.0051592 
  0.0014139 
 0.00013347 
  0.0051649 
  0.0050079 
  0.0025922 
  0.0030953 
  0.0017583 
   0.003586 
  0.0051773 
  0.0021042 
  0.0042549 
  0.0053325 
  0.0046765 
 0.00031086 
  0.0045099 
  0.0048476 
 0.00060195 
  0.0029425 
 0.00093549 
  0.0053461 
  0.0050175 
  0.0040822 
  0.0034367 
  0.0012758 
  0.0024409 
  0.0051876 
  0.0016179 
  0.0039326 
  0.0055099 
 0.00012622 
  0.0053577 
  0.0055154 
  0.0032866 
   0.001963 
   0.002789 
   0.003785 
  0.0055279 
  0.0044384 
  0.0048567 
  0.0050267 
  0.0023069 
 0.00039003 
  0.0056835 
  0.0007957 
  0.0051979 
  0.0046867 
  0.0011349 
  0.0031357 
  0.0053679 
  0.0056971 
  0.0036339 
  0.0014773 
  0.0026507 
  0.0055387 
  0.0043449 
  0.0018165 
  0.0058622 
   0.005709 
  0.0041751 
 0.00012315 
   0.005867 
  0.0021623 
  0.0034837 
  0.0029949 
  0.0052078 
  0.0058796 
  0.0040054 
  0.0050376 
  0.0053782 
 0.00065814 
 0.00033312 
 0.00099534 
   0.005549 
  0.0025149 
  0.0048692 
   0.001337 
  0.0060362 
  0.0057191 
  0.0046992 
  0.0033276 
  0.0016847 
  0.0060495 
  0.0038182 
   0.005891 
  0.0045278 
  0.0028494 
  0.0020093 
  0.0062164 
  0.0060617 
  0.0043562 
 0.00011099 
  0.0062202 
  0.0023811 
   0.003669 
  0.0053874 
  0.0055593 
   0.003193 
 0.00051273 
 0.00084999 
  0.0052186 
  0.0057301 
   0.001192 
  0.0062324 
  0.0041869 
  0.0050472 
   0.005901 
  0.0015357 
  0.0027292 
  0.0063904 
  0.0060718 
  0.0048774 
  0.0018717 
  0.0035333 
  0.0064037 
  0.0040165 
  0.0062439 
  0.0047066 
  0.0064156 
  0.0045365 
  0.0065726 
  0.0031344 
  0.0057396 
 0.00033971 
  0.0065754 
 0.00011553 
  0.0055694 
  0.0059117 
  0.0034198 
 0.00070698 
  0.0025848 
  0.0010487 
  0.0038823 
  0.0053991 
  0.0060825 
  0.0023042 
  0.0013943 
  0.0052275 
  0.0062543 
  0.0065864 
   0.004368 
  0.0017302 
  0.0029271 
  0.0064254 
  0.0050578 
  0.0067474 
  0.0037301 
  0.0067594 
  0.0042052 
  0.0065982 
  0.0048868 
  0.0021545 
  0.0060916 
  0.0059219 
 0.00056286 
  0.0067705 
  0.0057506 
  0.0047164 
  0.0062647 
 0.00090406 
   0.003541 
  0.0069325 
  0.0012489 
  0.0055796 
   0.006933 
  0.0064359 
 0.00011273 
  0.0040421 
  0.0015865 
  0.0024806 
  0.0066081 
  0.0054084 
  0.0069407 
  0.0045498 
  0.0033344 
   0.002798 
  0.0067801 
   0.005239 
  0.0019743 
   0.007108 
  0.0038704 
  0.0069535 
  0.0071164 
  0.0050674 
  0.0043844 
  0.0062735 
  0.0031602 
  0.0064457 
  0.0061038 
  0.0023116 
 0.00038259 
 0.00076491 
  0.0011038 
  0.0066178 
  0.0059301 
  0.0014452 
  0.0071259 
   0.004896 
  0.0057596 
  0.0067894 
  0.0037039 
  0.0072971 
  0.0072929 
 0.00012356 
  0.0042175 
  0.0026401 
  0.0069628 
  0.0055911 
  0.0017955 
  0.0047323 
  0.0072933 
  0.0071355 
  0.0054198 
  0.0035252 
  0.0021338 
   0.000283 
  0.0074749 
   0.002994 
   0.000926 
  0.0040527 
 0.00060011 
  0.0073093 
  0.0052475 
  0.0066281 
   0.007472 
  0.0064561 
  0.0045643 
  0.0062814 
  0.0067998 
  0.0012619 
  0.0061124 
   0.006972 
  0.0024747 
  0.0016122 
  0.0071445 
  0.0074793 
  0.0059439 
  0.0050797 
  0.0033464 
  0.0038706 
  0.0076573 
  0.0043996 
  0.0076626 
 0.00013924 
  0.0073186 
  0.0057734 
  0.0028217 
  0.0019551 
  0.0049149 
  0.0076211 
  0.0074935 
  0.0056016 
 0.00074947 
 0.00041918 
  0.0022995 
  0.0042146 
  0.0036861 
  0.0010875 
  0.0068101 
  0.0066345 
   0.006982 
  0.0031737 
  0.0054297 
  0.0064656 
  0.0071547 
  0.0076717 
  0.0078852 
  0.0078414 
  0.0014367 
  0.0047466 
   0.007327 
  0.0062967 
  0.0026464 
  0.0017828 
  0.0061244 
  0.0074995 
  0.0078486 
  0.0040294 
  0.0052642 
  0.0035211 
  0.0080053 
  0.0045648 
   0.007675 
  0.0059539 
 0.00012979 
  0.0021277 
  0.0079621 
  0.0029905 
 0.00094093 
 0.00061838 
  0.0050829 
  0.0057825 
  0.0078525 
  0.0081205 
  0.0069896 
 0.00033258 
  0.0071643 
  0.0012632 
  0.0068199 
  0.0073371 
  0.0024742 
  0.0038631 
  0.0043806 
  0.0075097 
  0.0066511 
  0.0033362 
  0.0056069 
  0.0080351 
  0.0016022 
  0.0049128 
  0.0076811 
  0.0064789 
  0.0028218 
  0.0078538 
  0.0063077 
  0.0019471 
  0.0054315 
   0.008208 
  0.0042005 
  0.0083159 
   0.008339 
  0.0036833 
  0.0080301 
   0.006136 
  0.0047306 
  0.0083609 
 0.00079022 
  0.0022915 
 0.00017557 
   0.003164 
  0.0010993 
  0.0052542 
  0.0073442 
  0.0071739 
  0.0059591 
  0.0075174 
  0.0082046 
 0.00044357 
  0.0070057 
  0.0076932 
  0.0014297 
  0.0026367 
   0.006832 
  0.0078678 
  0.0040276 
  0.0045493 
  0.0034999 
  0.0017681 
  0.0057854 
  0.0083787 
  0.0085104 
  0.0080352 
  0.0066623 
  0.0050789 
  0.0029832 
  0.0082092 
  0.0064902 
  0.0021142 
  0.0085598 
  0.0056054 
  0.0043679 
  0.0038458 
 0.00081662 
   0.006312 
  0.0083803 
  0.0049003 
  0.0086896 
   0.002462 
  0.0075299 
  0.0077004 
 0.00015453 
  0.0012441 
  0.0033267 
  0.0078696 
  0.0073599 
  0.0087156 
  0.0071836 
  0.0054276 
  0.0061378 
  0.0085479 
  0.0080497 
  0.0015937 
  0.0087344 
  0.0070143 
     0.0028 
  0.0082239 
  0.0041926 
  0.0047168 
  0.0019388 
 0.00042762 
  0.0083906 
  0.0068419 
  0.0036646 
  0.0059596 
  0.0087341 
  0.0052473 
  0.0066666 
  0.0085588 
  0.0089112 
  0.0031438 
  0.0022824 
  0.0057806 
  0.0010821 
  0.0089333 
 0.00074734 
  0.0045431 
  0.0064885 
  0.0040113 
   0.008737 
  0.0078877 
  0.0077109 
   0.008057 
  0.0050647 
  0.0026248 
  0.0090587 
  0.0075406 
  0.0082287 
  0.0014231 
  0.0034909 
 0.00015617 
  0.0073645 
  0.0090927 
  0.0084065 
  0.0063133 
  0.0056053 
  0.0017628 
  0.0089257 
  0.0071973 
  0.0091026 
  0.0085975 
  0.0029636 
  0.0020997 
  0.0043578 
   0.007022 
  0.0048905 
  0.0061395 
  0.0038346 
   0.008767 
  0.0091206 
 0.00054406 
  0.0054055 
  0.0068454 
 0.00089292 
  0.0033037 
  0.0024434 
  0.0092827 
  0.0089304 
  0.0080673 
   0.001244 
  0.0059508 
   0.008238 
  0.0078943 
  0.0084126 
  0.0066684 
  0.0047042 
  0.0041696 
  0.0077248 
  0.0093276 
  0.0085932 
  0.0015878 
   0.009106 
  0.0027888 
  0.0052451 
   0.009418 
  0.0036462 
  0.0075553 
  0.0087726 
  0.0001819 
  0.0094557 
  0.0064917 
  0.0019281 
  0.0057569 
  0.0073778 
  0.0092887 
  0.0089402 
 0.00036945 
  0.0094666 
  0.0031344 
  0.0045166 
  0.0022657 
  0.0072015 
  0.0091295 
  0.0050538 
  0.0063197 
  0.0039971 
 0.00072541 
  0.0010604 
  0.0070231 
  0.0094994 
  0.0055847 
  0.0092792 
  0.0014027 
  0.0034717 
   0.002608 
  0.0085875 
  0.0082452 
  0.0084208 
  0.0096421 
  0.0080826 
  0.0087701 
  0.0068469 
  0.0079133 
  0.0089321 
  0.0061007 
  0.0094651 
  0.0017468 
  0.0048653 
  0.0043354 
  0.0077313 
  0.0029534 
  0.0054055 
  0.0090968 
  0.0097774 
  0.0038044 
  0.0020919 
 0.00017424 
   0.009721 
  0.0066665 
  0.0092839 
  0.0098157 
  0.0059087 
  0.0075582 
  0.0096614 
 0.00050844 
  0.0098286 
  0.0032995 
  0.0073794 
  0.0024298 
  0.0046739 
  0.0094626 
 0.00089495 
  0.0052094 
  0.0064973 
   0.004168 
  0.0012338 
  0.0087697 
  0.0086042 
  0.0089494 
   0.007202 
  0.0084402 
  0.0096346 
  0.0015642 
  0.0057384 
  0.0027718 
   0.003645 
   0.008269 
  0.0091298 
   0.010001 
  0.0092724 
  0.0080862 
  0.0099059 
  0.0094383 
  0.0062391 
  0.0018993 
  0.0070222 
  0.0079141 
  0.0050246 
  0.0045117 
   0.009827 
  0.0031292 
   0.005549 
   0.010042 
    0.01014 
  0.0022447 
  0.0060578 
  0.0039998 
  0.0077484 
  0.0096507 
  0.0068351 
 0.00035724 
 0.00018238 
   0.010178 
 0.00071164 
  0.0098007 
  0.0010575 
   0.010192 
  0.0034758 
  0.0075581 
  0.0025946 
   0.010062 
  0.0043484 
  0.0048586 
  0.0091263 
   0.008963 
  0.0013935 
  0.0087934 
  0.0066598 
  0.0053769 
  0.0086156 
  0.0093082 
   0.010192 
  0.0073787 
  0.0017231 
  0.0084441 
  0.0099397 
  0.0094708 
  0.0059016 
  0.0095912 
  0.0029388 
  0.0038215 
  0.0082725 
   0.010366 
  0.0063821 
  0.0098273 
  0.0020555 
  0.0072037 
  0.0081036 
   0.010401 
  0.0052043 
   0.010301 
  0.0046848 
  0.0024025 
   0.010186 
  0.0033066 
  0.0057303 
 0.00052918 
   0.010011 
  0.0008713 
   0.004146 
   0.010504 
  0.0079355 
  0.0062409 
 0.00017211 
   0.010543 
  0.0012138 
   0.010174 
  0.0070003 
  0.0077316 
  0.0091556 
    0.01056 
  0.0036523 
  0.0094907 
  0.0093406 
  0.0027452 
  0.0089733 
  0.0067576 
  0.0015559 
  0.0044807 
  0.0050193 
  0.0099444 
   0.010288 
  0.0088039 
  0.0096751 
   0.010438 
  0.0098155 
  0.0055565 
  0.0086197 
  0.0018999 
   0.010579 
  0.0075538 
  0.0060827 
  0.0084397 
  0.0039831 
  0.0030908 
  0.0022219 
   0.010733 
   0.010164 
  0.0065887 
  0.0082769 
  0.0073744 
 0.00038667 
  0.0048223 
 0.00071219 
  0.0042614 
    0.01075 
  0.0053567 
   0.010666 
  0.0025333 
  0.0034758 
   0.010344 
  0.0010378 
  0.0058974 
  0.0080938 
    0.01054 
    0.01087 
  0.0071906 
  0.0064347 
  0.0013778 
  0.0098609 
   0.010521 
  0.0093334 
  0.0095195 
 0.00019548 
  0.0096914 
   0.010908 
  0.0091585 
  0.0079105 
   0.010005 
  0.0038155 
  0.0017292 
   0.010924 
  0.0089821 
   0.006934 
  0.0028865 
   0.004633 
   0.010302 
  0.0051675 
  0.0087953 
   0.010815 
  0.0057135 
  0.0020646 
  0.0062387 
  0.0077326 
   0.010935 
  0.0086323 
   0.010449 
  0.0041465 
   0.002404 
 0.00043754 
  0.0067779 
   0.011097 
  0.0084606 
  0.0075514 
 0.00087434 
  0.0032771 
  0.0049795 
  0.0012095 
   0.011116 
  0.0073028 
   0.002723 
  0.0055089 
   0.010679 
  0.0082762 
  0.0036249 
   0.011058 
   0.009896 
  0.0060856 
  0.0097262 
   0.010943 
   0.010049 
  0.0095223 
  0.0015605 
   0.010193 
   0.011235 
  0.0065942 
   0.010889 
  0.0093455 
  0.0030085 
  0.0091551 
   0.010458 
 0.00021288 
   0.011273 
  0.0080869 
  0.0019005 
  0.0039869 
  0.0059018 
   0.011287 
  0.0071278 
   0.010629 
  0.0089885 
  0.0044877 
  0.0053296 
  0.0022445 
    0.01114 
  0.0088021 
  0.0079064 
  0.0064392 
   0.010813 
   0.011308 
 0.00038724 
 0.00070545 
  0.0025893 
  0.0048461 
  0.0086354 
   0.011003 
   0.001047 
  0.0069443 
   0.011463 
  0.0077225 
  0.0099396 
  0.0013897 
   0.010096 
   0.010281 
   0.006246 
  0.0029235 
   0.010452 
   0.011477 
  0.0097087 
  0.0074801 
  0.0056726 
  0.0084499 
  0.0051801 
   0.010627 
  0.0035792 
  0.0095084 
   0.001738 
  0.0032484 
  0.0043602 
  0.0067876 
   0.011602 
  0.0093476 
   0.011184 
   0.010815 
   0.011481 
  0.0091409 
  0.0020746 
  0.0082604 
   0.011298 
   0.011639 
 0.00023984 
   0.010986 
  0.0060523 
  0.0073023 
   0.011652 
  0.0039628 
  0.0024164 
  0.0005178 
   0.008991 
  0.0047132 
   0.011159 
  0.0080797 
  0.0055175 
   0.011486 
  0.0065976 
   0.011663 
  0.0012315 
  0.0008953 
  0.0027623 
  0.0050513 
  0.0088181 
   0.011333 
   0.010291 
    0.01012 
   0.010468 
  0.0015557 
  0.0071376 
    0.01165 
   0.010643 
   0.011829 
   0.005861 
   0.007898 
    0.01083 
  0.0098619 
  0.0086495 
  0.0031029 
  0.0064026 
   0.011841 
   0.011525 
  0.0053936 
   0.011008 
  0.0076626 
  0.0097002 
  0.0019012 
  0.0034412 
  0.0095015 
  0.0084424 
  0.0043195 
   0.011177 
  0.0069465 
   0.011969 
  0.0022435 
   0.011854 
   0.011685 
  0.0093468 
   0.012006 
   0.011348 
  0.0003067 
 0.00042013 
  0.0037812 
 0.00071419 
   0.007492 
  0.0062131 
   0.012019 
  0.0025904 
  0.0082944 
  0.0010663 
  0.0046761 
  0.0091678 
   0.011522 
  0.0057278 
  0.0013911 
    0.01188 
  0.0067585 
   0.012031 
   0.010476 
   0.010654 
  0.0029351 
  0.0041148 
     0.0103 
   0.010833 
  0.0080949 
  0.0017236 
  0.0052606 
  0.0089985 
   0.011705 
  0.0032795 
   0.011015 
  0.0050058 
  0.0072988 
   0.011195 
   0.010055 
  0.0020858 
   0.012197 
  0.0060331 
  0.0088041 
   0.012053 
  0.0098457 
    0.01137 
   0.004456 
   0.011882 
  0.0065666 
   0.012209 
  0.0096609 
    0.00558 
  0.0078536 
  0.0036151 
  0.0024369 
   0.011542 
  0.0094866 
   0.007115 
  0.0086419 
   0.012337 
   0.012223 
   0.012063 
  0.0027867 
   0.011716 
   0.012374 
  0.0039504 
  0.0093289 
   0.008446 
  0.0063837 
   0.012388 
   0.007656 
   0.011894 
  0.0047762 
   0.005909 
  0.0031512 
    0.01084 
   0.010662 
    0.01102 
  0.0053385 
   0.012245 
   0.010484 
  0.0069251 
   0.011201 
   0.012401 
  0.0091649 
   0.011381 
  0.0042556 
  0.0082504 
   0.010166 
   0.012073 
   0.011559 
  0.0034828 
  0.0074766 
  0.0089716 
  0.0062428 
   0.010023 
   0.012565 
   0.011735 
   0.012419 
  0.0098424 
   0.012253 
  0.0045567 
  0.0067374 
   0.012579 
    0.01191 
  0.0080857 
  0.0038253 
   0.005123 
  0.0096818 
  0.0088069 
  0.0057101 
  0.0072809 
   0.012087 
   0.012594 
   0.012433 
   0.012706 
   0.012742 
   0.009519 
   0.010537 
  0.0086062 
  0.0041501 
   0.011026 
   0.011206 
    0.01085 
   0.011388 
   0.012757 
   0.012265 
  0.0078227 
  0.0065608 
  0.0093136 
   0.011569 
  0.0048866 
   0.012611 
   0.010363 
   0.011748 
  0.0070922 
   0.012771 
  0.0063175 
   0.012444 
   0.010206 
   0.011926 
  0.0084466 
   0.004473 
  0.0054821 
  0.0076417 
  0.0091469 
   0.012103 
   0.012935 
   0.010038 
   0.012787 
   0.006068 
   0.012623 
    0.01228 
  0.0089603 
  0.0069053 
    0.01295 
  0.0082509 
  0.0098475 
  0.0047999 
  0.0074552 
   0.012458 
   0.012801 
   0.012964 
   0.013076 
  0.0096762 
   0.011391 
   0.011209 
   0.011574 
   0.011027 
   0.011755 
   0.013112 
  0.0058409 
  0.0087884 
   0.010847 
   0.011936 
   0.012636 
  0.0094752 
   0.006677 
  0.0080767 
   0.013128 
   0.010549 
   0.012116 
  0.0052334 
    0.01298 
  0.0072642 
   0.010384 
   0.013143 
   0.012295 
  0.0086079 
   0.012814 
  0.0093211 
   0.012473 
   0.007888 
   0.010209 
  0.0064809 
   0.013157 
   0.013306 
   0.012993 
   0.005584 
   0.012651 
   0.009137 
    0.01003 
  0.0070688 
   0.013322 
  0.0084356 
  0.0098347 
  0.0061838 
   0.012829 
   0.011575 
   0.011759 
    0.01139 
   0.011942 
   0.013172 
  0.0077191 
   0.011206 
   0.012124 
   0.013336 
   0.013448 
   0.011023 
   0.012305 
  0.0089632 
   0.008251 
   0.013483 
   0.013007 
   0.010734 
  0.0059102 
   0.009644 
   0.012485 
   0.013501 
    0.01335 
    0.01057 
   0.012665 
   0.008786 
  0.0075342 
   0.013515 
   0.013186 
   0.006886 
   0.012844 
   0.010417 
  0.0095064 
  0.0080777 
  0.0062776 
   0.013529 
   0.013682 
   0.013022 
   0.013365 
    0.01019 
  0.0093205 
  0.0099959 
   0.008611 
   0.011943 
   0.013694 
   0.011757 
   0.012127 
   0.011571 
   0.012311 
   0.007358 
   0.013201 
   0.011385 
   0.012493 
  0.0078971 
   0.013543 
   0.011199 
   0.012675 
   0.013708 
   0.013824 
  0.0091418 
  0.0066559 
   0.013379 
   0.011006 
  0.0084308 
   0.012856 
   0.013869 
   0.013873 
    0.00988 
   0.010823 
   0.013036 
   0.013723 
  0.0071904 
   0.013558 
   0.008965 
  0.0077202 
   0.013889 
    0.01064 
   0.013215 
  0.0096833 
  0.0082551 
  0.0069633 
   0.010451 
   0.013394 
   0.013903 
   0.013737 
   0.012126 
   0.012312 
    0.01405 
   0.011939 
   0.012497 
  0.0095036 
   0.010225 
   0.011753 
   0.012681 
  0.0087973 
   0.014069 
   0.011568 
   0.012864 
   0.013573 
  0.0075539 
   0.011383 
   0.013046 
   0.008073 
   0.013917 
   0.014083 
   0.011192 
   0.013227 
    0.01421 
  0.0093291 
   0.013752 
  0.0073475 
  0.0086124 
   0.011006 
   0.013408 
   0.014248 
   0.010125 
   0.014097 
   0.014294 
   0.013932 
   0.010821 
  0.0091585 
   0.013588 
   0.014264 
    0.00791 
  0.0084359 
   0.012495 
   0.012309 
   0.012682 
   0.010638 
   0.013767 
   0.012122 
   0.012867 
   0.014277 
   0.014111 
  0.0077142 
   0.011935 
   0.013052 
   0.014433 
  0.0096783 
   0.011749 
   0.013235 
   0.010473 
   0.010036 
  0.0089701 
   0.014445 
   0.013947 
   0.011562 
   0.013418 
  0.0082652 
   0.014291 
   0.011374 
     0.0136 
   0.014458 
  0.0095157 
   0.014126 
   0.014582 
   0.011188 
   0.013781 
  0.0087937 
  0.0080727 
   0.014628 
   0.014472 
   0.014679 
   0.011005 
   0.014306 
   0.013962 
  0.0093276 
    0.01464 
   0.012678 
   0.012866 
   0.012491 
   0.013053 
   0.012304 
   0.013239 
   0.010528 
   0.010064 
   0.010826 
   0.014142 
   0.012117 
   0.013424 
  0.0086318 
   0.014486 
   0.014653 
   0.011929 
   0.013608 
   0.014811 
   0.009875 
  0.0091632 
   0.014321 
   0.011742 
  0.0084197 
   0.013791 
   0.014822 
   0.011556 
   0.013974 
   0.014667 
   0.014835 
    0.00899 
   0.014502 
  0.0096907 
   0.014959 
    0.01137 
   0.014155 
   0.010422 
   0.015005 
   0.014848 
   0.011186 
   0.013049 
   0.014336 
   0.012861 
   0.013237 
   0.014682 
   0.015056 
   0.012673 
   0.013424 
  0.0095212 
  0.0088153 
   0.010241 
   0.012485 
   0.013611 
   0.015017 
   0.012297 
   0.013797 
   0.010997 
   0.014517 
    0.01211 
   0.013981 
   0.014862 
    0.01503 
   0.010048 
   0.015188 
  0.0093395 
   0.011923 
   0.014165 
   0.010795 
   0.014697 
     0.0152 
   0.011737 
   0.014348 
   0.015043 
   0.009147 
   0.015212 
   0.014878 
  0.0098771 
   0.011551 
    0.01453 
   0.010591 
   0.015337 
   0.013232 
   0.013421 
   0.013043 
   0.013609 
   0.012855 
   0.011365 
   0.013797 
   0.015382 
   0.014712 
   0.015225 
   0.015058 
   0.012666 
   0.013984 