# vtk DataFile Version 2.0
Steady-state stabilized finite element formulation for the 2D incopmpressible Navier Stokes equations
ASCII

DATASET UNSTRUCTURED_GRID
POINTS 1664 double
     10            1            0 
     10          0.6            0 
    9.6            1            0 
9.43333      0.64466            0 
    9.6      0.30718            0 
     10          0.2            0 
    9.2            1            0 
      9      0.65359            0 
    9.2      0.30718            0 
9.50874     -0.01824            0 
    8.8            1            0 
     10         -0.2            0 
9.62066      -0.3629            0 
      9     -0.03923            0 
8.55422       0.6506            0 
9.16767     -0.33688            0 
8.60604         0.25            0 
    8.4            1            0 
     10         -0.6            0 
9.42687      -0.6594            0 
8.25963        0.625            0 
8.27416      0.40427            0 
8.60604        -0.25            0 
      9     -0.65359            0 
8.22506         0.15            0 
     10           -1            0 
      8            1            0 
      8         0.75            0 
    9.6           -1            0 
      8          0.5            0 
8.25963       -0.125            0 
      8         0.25            0 
    9.2           -1            0 
8.55422      -0.6506            0 
8.25963       -0.375            0 
      8            0            0 
   7.75            1            0 
   7.75      0.73205            0 
    8.8           -1            0 
   7.75      0.29904            0 
      8        -0.25            0 
8.25963       -0.625            0 
  7.625      0.51554            0 
      8         -0.5            0 
    7.5            1            0 
    7.5      0.73205            0 
   7.75     -0.13397            0 
  7.625      0.08253            0 
    8.4           -1            0 
    7.5      0.29904            0 
      8        -0.75            0 
  7.375      0.51554            0 
  7.625     -0.35048            0 
   7.75     -0.56699            0 
    7.5     -0.13397            0 
   7.25            1            0 
   7.25      0.73205            0 
  7.375      0.08253            0 
      8           -1            0 
   7.25      0.29904            0 
  7.125      0.51554            0 
    7.5     -0.56699            0 
  7.375     -0.35048            0 
  7.625     -0.78349            0 
   7.25     -0.13397            0 
      7            1            0 
   7.75           -1            0 
  7.125      0.08253            0 
      7      0.29904            0 
  6.875      0.78349            0 
  6.875      0.51554            0 
   7.25     -0.56699            0 
  7.375     -0.78349            0 
  7.125     -0.35048            0 
    7.5           -1            0 
      7     -0.13397            0 
   6.75            1            0 
  6.875      0.08253            0 
   6.75      0.29904            0 
  6.625      0.78349            0 
  7.125     -0.78349            0 
      7     -0.56699            0 
   7.25           -1            0 
  6.875     -0.35048            0 
  6.625      0.51554            0 
   6.75     -0.13397            0 
  6.625      0.08253            0 
    6.5            1            0 
    6.5      0.29904            0 
  6.875     -0.78349            0 
      7           -1            0 
   6.75     -0.56699            0 
  6.375      0.78349            0 
  6.625     -0.35048            0 
  6.375      0.51554            0 
    6.5     -0.13397            0 
  6.375      0.08253            0 
   6.25            1            0 
   6.75           -1            0 
  6.625     -0.78349            0 
    6.5     -0.56699            0 
  6.375     -0.35048            0 
6.19013      0.28619            0 
  6.125      0.78349            0 
   6.25     -0.13397            0 
6.17142      0.03689            0 
      6            1            0 
    6.5           -1            0 
  6.375     -0.78349            0 
5.98358      0.42703            0 
   6.25     -0.56699            0 
  6.125     -0.35048            0 
5.96488      0.17774            0 
  5.875      0.78349            0 
5.94606     -0.07154            0 
   6.25           -1            0 
   5.75            1            0 
5.75964      0.59426            0 
  6.125     -0.78349            0 
      6     -0.56699            0 
5.75836      0.31856            0 
 5.7396      0.06943            0 
5.75836     -0.31856            0 
      6           -1            0 
5.53587       0.7042            0 
5.55125      0.45738            0 
  5.875     -0.78349            0 
    5.5            1            0 
5.75964     -0.59426            0 
5.53356      0.21071            0 
5.53356     -0.21071            0 
5.55125     -0.45738            0 
5.33522      0.55964            0 
5.35267      0.32367            0 
   5.75           -1            0 
   5.25            1            0 
5.33427            0            0 
5.53587      -0.7042            0 
5.20456      0.73233            0 
5.32416     -0.28508            0 
5.16989      0.41842            0 
5.18086      0.28571            0 
5.10628      0.57419            0 
5.33522     -0.55964            0 
    5.5           -1            0 
5.14063      0.07041            0 
5.07418      0.46429            0 
5.16662     -0.11383            0 
5.08041      0.33402            0 
 5.0649      0.40049            0 
5.06584      0.25714            0 
5.07418      0.17857            0 
      5            1            0 
      5      0.85198            0 
      5      0.70397            0 
5.15309     -0.26786            0 
5.06584          0.1            0 
      5      0.58489            0 
      5          0.5            0 
      5      0.42857            0 
5.07418     -0.03571            0 
5.05613      0.04122            0 
5.16185     -0.41035            0 
      5      0.35714            0 
      5      0.28571            0 
  5.063     -0.10848            0 
      5      0.21429            0 
5.07418     -0.17857            0 
      5      0.14286            0 
      5      0.07143            0 
4.92969          0.5            0 
5.06029     -0.25357            0 
5.20456     -0.73233            0 
      5            0            0 
5.07418     -0.32143            0 
 4.9383      0.35644            0 
      5     -0.07143            0 
4.94863      0.17458            0 
4.89453      0.57302            0 
5.06584         -0.4            0 
      5     -0.14286            0 
4.92906        0.227            0 
4.86815      0.80482            0 
4.89547      0.42412            0 
5.07418     -0.46429            0 
5.10628     -0.57419            0 
      5     -0.21429            0 
4.92916      0.11876            0 
4.84848            1            0 
   5.25           -1            0 
4.93678     -0.00594            0 
      5     -0.28571            0 
4.88472      0.29126            0 
4.85938          0.5            0 
      5     -0.35714            0 
4.88492      0.17002            0 
4.93687     -0.13799            0 
4.84962      0.35182            0 
4.82422      0.57302            0 
4.81543       0.6734            0 
      5     -0.42857            0 
4.88512      0.04877            0 
4.84982      0.23058            0 
4.89827     -0.07217            0 
4.81452      0.41238            0 
      5         -0.5            0 
  4.949     -0.31841            0 
4.92959     -0.26299            0 
4.85002      0.10934            0 
4.81472      0.29114            0 
4.78906          0.5            0 
      5     -0.58489            0 
4.85022     -0.01191            0 
4.81492       0.1699            0 
4.88551     -0.19372            0 
4.92969     -0.37123            0 
4.77962       0.3517            0 
4.75391      0.57302            0 
4.81512      0.04866            0 
4.85042     -0.13315            0 
4.77982      0.23046            0 
4.88571     -0.31496            0 
      5     -0.70397            0 
4.71875      0.80794            0 
4.92969         -0.5            0 
4.74452      0.41227            0 
4.81532     -0.07259            0 
4.78002      0.10922            0 
4.85061     -0.25439            0 
4.74472      0.29103            0 
4.69697            1            0 
4.71875          0.5            0 
4.88591      -0.4362            0 
4.78022     -0.01202            0 
4.81552     -0.19383            0 
4.74492      0.16978            0 
4.85081     -0.37564            0 
4.70962      0.35159            0 
      5     -0.85198            0 
4.68359      0.57302            0 
4.74512      0.04854            0 
4.66942      0.66836            0 
4.78042     -0.13327            0 
4.90039     -0.58999            0 
4.70982      0.23035            0 
4.81571     -0.31507            0 
4.85938         -0.5            0 
4.67452      0.41215            0 
4.74532      -0.0727            0 
4.71002       0.1091            0 
4.78061     -0.25451            0 
4.67472      0.29091            0 
4.64844          0.5            0 
4.81591     -0.43632            0 
      5           -1            0 
4.71022     -0.01214            0 
4.74552     -0.19394            0 
4.67492      0.16967            0 
4.78081     -0.37575            0 
4.63962      0.35147            0 
4.61328      0.57302            0 
4.67512      0.04843            0 
4.82422     -0.57302            0 
4.71042     -0.13338            0 
4.63982      0.23023            0 
4.74571     -0.31519            0 
4.78906         -0.5            0 
4.57813      0.80794            0 
4.60452      0.41204            0 
4.67532     -0.07282            0 
4.64002      0.10899            0 
4.71061     -0.25462            0 
4.86815     -0.80482            0 
4.60472      0.29079            0 
4.57812          0.5            0 
4.74591     -0.43643            0 
4.64022     -0.01225            0 
4.54545            1            0 
4.67551     -0.19406            0 
4.60493      0.16955            0 
[...]
POINT_DATA 1664
SCALARS pressure double
LOOKUP_TABLE default
 1.5291e-07 
  1.127e-07 
 2.5458e-07 
 3.1839e-07 
 2.1529e-07 
 9.9418e-08 
 4.0728e-07 
 4.8923e-07 
 4.1142e-07 
 1.9408e-07 
 5.7845e-07 
 7.7096e-08 
  1.901e-07 
 5.1194e-07 
  6.429e-07 
 4.0948e-07 
 6.5999e-07 
 7.3934e-07 
  1.133e-07 
 2.9833e-07 
 8.3677e-07 
 8.0173e-07 
   6.68e-07 
 4.6891e-07 
  8.515e-07 
 1.4534e-07 
  8.925e-07 
  9.005e-07 
 2.3678e-07 
  9.195e-07 
 8.4698e-07 
 9.2562e-07 
 3.8248e-07 
 6.3793e-07 
 8.4415e-07 
  9.237e-07 
 9.9608e-07 
 1.0264e-06 
  5.539e-07 
 1.0405e-06 
 9.3792e-07 
 8.6367e-07 
 1.0903e-06 
 9.6142e-07 
 1.1094e-06 
 1.1342e-06 
 1.0565e-06 
 1.1133e-06 
 7.6537e-07 
 1.1705e-06 
 9.6501e-07 
 1.2259e-06 
 1.1333e-06 
   1.08e-06 
 1.1891e-06 
 1.2563e-06 
 1.2732e-06 
 1.2412e-06 
 9.5619e-07 
  1.294e-06 
 1.3423e-06 
 1.1977e-06 
 1.2549e-06 
 1.1392e-06 
 1.3092e-06 
  1.429e-06 
 1.0772e-06 
 1.3659e-06 
 1.4227e-06 
 1.5075e-06 
 1.5015e-06 
  1.316e-06 
 1.2558e-06 
 1.3733e-06 
 1.1939e-06 
 1.4312e-06 
 1.5772e-06 
 1.4927e-06 
 1.5595e-06 
 1.6605e-06 
 1.3712e-06 
 1.4345e-06 
 1.3084e-06 
  1.494e-06 
 1.6332e-06 
  1.554e-06 
 1.6161e-06 
 1.7288e-06 
  1.678e-06 
 1.4903e-06 
 1.4253e-06 
 1.5569e-06 
 1.8105e-06 
 1.6182e-06 
 1.7511e-06 
  1.684e-06 
 1.7613e-06 
 1.8687e-06 
  1.547e-06 
  1.615e-06 
 1.6813e-06 
 1.7404e-06 
 1.8491e-06 
 1.9394e-06 
 1.7979e-06 
 1.8659e-06 
 2.0222e-06 
  1.677e-06 
 1.7476e-06 
 1.9197e-06 
 1.8117e-06 
 1.8478e-06 
 1.9503e-06 
 1.9961e-06 
  1.961e-06 
 1.8176e-06 
  1.992e-06 
 1.9918e-06 
 1.8865e-06 
 1.8673e-06 
 1.9993e-06 
  2.067e-06 
 1.9799e-06 
 1.9579e-06 
 2.0453e-06 
 2.0542e-06 
 1.9633e-06 
 2.0669e-06 
 1.9811e-06 
 2.0822e-06 
 2.0807e-06 
  2.032e-06 
 2.1163e-06 
 2.1468e-06 
  1.977e-06 
 2.1312e-06 
 2.1629e-06 
  2.042e-06 
 2.1564e-06 
 2.1333e-06 
  2.158e-06 
 2.1643e-06 
 2.1964e-06 
 2.1133e-06 
 2.0564e-06 
 2.2258e-06 
 2.2386e-06 
 2.2068e-06 
 2.2449e-06 
 2.2668e-06 
 2.2538e-06 
 2.2396e-06 
 2.2132e-06 
 2.2092e-06 
 2.2286e-06 
 2.1953e-06 
 2.2239e-06 
 2.2444e-06 
 2.2652e-06 
  2.283e-06 
 2.2158e-06 
 2.2086e-06 
 2.1711e-06 
 2.2835e-06 
 2.2789e-06 
 2.2019e-06 
  2.266e-06 
 2.2143e-06 
 2.2497e-06 
 2.2303e-06 
 2.2969e-06 
 2.2363e-06 
 2.1566e-06 
 2.2254e-06 
 2.2497e-06 
 2.3007e-06 
 2.2246e-06 
 2.2774e-06 
 2.2842e-06 
  2.267e-06 
 2.2325e-06 
 2.2928e-06 
 2.2814e-06 
 2.3077e-06 
 2.2464e-06 
 2.2029e-06 
 2.2474e-06 
 2.2759e-06 
 2.2792e-06 
 2.1319e-06 
 2.2548e-06 
 2.2648e-06 
 2.3121e-06 
 2.3092e-06 
 2.2787e-06 
 2.3003e-06 
  2.262e-06 
 2.3244e-06 
 2.3122e-06 
 2.3084e-06 
 2.2831e-06 
 2.2883e-06 
 2.3189e-06 
 2.2783e-06 
 2.3312e-06 
 2.2713e-06 
 2.2863e-06 
 2.2846e-06 
 2.3088e-06 
 2.3335e-06 
 2.3342e-06 
 2.2502e-06 
 2.3034e-06 
 2.3277e-06 
 2.2928e-06 
 2.2972e-06 
 2.3446e-06 
 2.3372e-06 
 2.3215e-06 
 2.3049e-06 
  2.344e-06 
 2.3074e-06 
 2.2339e-06 
 2.3434e-06 
  2.292e-06 
 2.3538e-06 
 2.3199e-06 
 2.3394e-06 
 2.3137e-06 
 2.3574e-06 
 2.3453e-06 
 2.3573e-06 
 2.3071e-06 
 2.3365e-06 
 2.3237e-06 
  2.356e-06 
 2.3202e-06 
 2.3688e-06 
 2.2104e-06 
 2.3679e-06 
 2.3533e-06 
  2.367e-06 
 2.3371e-06 
 2.2806e-06 
 2.3705e-06 
 2.3301e-06 
  2.311e-06 
 2.3781e-06 
 2.3522e-06 
 2.3694e-06 
 2.3408e-06 
 2.3833e-06 
 2.3832e-06 
   2.33e-06 
 2.2144e-06 
 2.3681e-06 
 2.3534e-06 
 2.3843e-06 
 2.3419e-06 
 2.3944e-06 
 2.3859e-06 
 2.3838e-06 
 2.3054e-06 
 2.3677e-06 
 2.3978e-06 
 2.3547e-06 
 2.3346e-06 
 2.3972e-06 
  2.404e-06 
  2.383e-06 
 2.3987e-06 
  2.368e-06 
 2.2814e-06 
   2.41e-06 
 2.4081e-06 
 2.3505e-06 
 2.3984e-06 
 2.4027e-06 
 2.3823e-06 
 2.4127e-06 
  2.366e-06 
 2.3436e-06 
 2.4209e-06 
 2.4179e-06 
 2.3159e-06 
 2.3974e-06 
 2.4134e-06 
 2.3806e-06 
 2.4254e-06 
 2.4199e-06 
 2.3551e-06 
 2.4307e-06 
 2.4128e-06 
 2.4277e-06 
 2.3956e-06 
  2.437e-06 
 2.3755e-06 
 2.4382e-06 
 2.4279e-06 
 2.4109e-06 
 2.2799e-06 
 2.4409e-06 
 2.3915e-06 
 2.4476e-06 
 2.4471e-06 
 2.3631e-06 
 2.4265e-06 
 2.4426e-06 
 2.4074e-06 
 2.4531e-06 
 2.3825e-06 
 2.4464e-06 
 2.4573e-06 
  2.442e-06 
 2.4563e-06 
 2.4233e-06 
 2.4641e-06 
 2.4015e-06 
 2.3424e-06 
 2.4643e-06 
  2.457e-06 
 2.4393e-06 
 2.4691e-06 
 2.4183e-06 
 2.4586e-06 
  2.474e-06 
 2.3722e-06 
 2.3887e-06 
 2.4552e-06 
 2.4714e-06 
 2.4345e-06 
 2.4728e-06 
 2.4808e-06 
 2.4076e-06 
 2.4824e-06 
 2.4708e-06 
 2.4511e-06 
 2.4848e-06 
 2.4803e-06 
 2.4287e-06 
 2.4913e-06 
 2.4863e-06 
 2.4858e-06 
 2.4675e-06 
 2.4972e-06 
 2.3438e-06 
 2.4448e-06 
 2.5006e-06 
 2.4178e-06 
 2.4837e-06 
 2.4991e-06 
    2.5e-06 
 2.4619e-06 
 2.5085e-06 
 2.4375e-06 
  2.508e-06 
 2.4963e-06 
 2.4994e-06 
 2.4787e-06 
 2.5132e-06 
 2.3959e-06 
 2.4543e-06 
 2.5185e-06 
 2.5123e-06 
 2.4207e-06 
 2.5144e-06 
 2.4956e-06 
 2.5253e-06 
 2.4719e-06 
 2.4459e-06 
 2.5273e-06 
 2.5121e-06 
  2.516e-06 
 2.5285e-06 
 2.4889e-06 
 2.5092e-06 
 2.4603e-06 
 2.5362e-06 
 2.5279e-06 
 2.5345e-06 
 2.5064e-06 
 2.5415e-06 
 2.4818e-06 
 2.5457e-06 
 2.5372e-06 
 2.5236e-06 
 2.5429e-06 
 2.5301e-06 
 2.4979e-06 
 2.5534e-06 
  2.402e-06 
 2.4678e-06 
  2.554e-06 
 2.5404e-06 
  2.557e-06 
 2.5483e-06 
  2.516e-06 
 2.4903e-06 
 2.5639e-06 
 2.5564e-06 
 2.5603e-06 
 2.5339e-06 
 2.5421e-06 
 2.5699e-06 
 2.4465e-06 
 2.5057e-06 
  2.573e-06 
 2.5636e-06 
 2.5516e-06 
 2.5715e-06 
 2.4798e-06 
 2.5243e-06 
 2.4984e-06 
 2.5815e-06 
 2.5807e-06 
 2.5686e-06 
 2.5855e-06 
 2.5429e-06 
 2.5657e-06 
 2.5093e-06 
 2.5917e-06 
 2.5566e-06 
 2.5848e-06 
 2.5614e-06 
 2.5867e-06 
 2.5983e-06 
 2.5313e-06 
 2.6003e-06 
  2.588e-06 
 2.5795e-06 
    2.6e-06 
 2.5771e-06 
 2.5505e-06 
 2.6096e-06 
 2.5147e-06 
 2.4587e-06 
 2.6074e-06 
 2.5969e-06 
 2.5699e-06 
  2.614e-06 
 2.5966e-06 
 2.5356e-06 
 2.6195e-06 
 2.6133e-06 
  2.589e-06 
 2.4963e-06 
 2.6124e-06 
 2.6267e-06 
 2.5863e-06 
 2.5573e-06 
 2.6276e-06 
 2.6075e-06 
 2.6141e-06 
 2.6287e-06 
 2.5771e-06 
 2.6379e-06 
 2.5476e-06 
   2.53e-06 
 2.6339e-06 
 2.6253e-06 
 2.5969e-06 
 2.6427e-06 
 2.5624e-06 
 2.6148e-06 
 2.6473e-06 
 2.6419e-06 
 2.6165e-06 
 2.6382e-06 
 2.6553e-06 
 2.5835e-06 
 2.6025e-06 
 2.6549e-06 
 2.6356e-06 
 2.6574e-06 
 2.6372e-06 
 2.6036e-06 
 2.6203e-06 
 2.6662e-06 
 2.5649e-06 
 2.5094e-06 
 2.6605e-06 
 2.6537e-06 
 2.6239e-06 
 2.6715e-06 
 2.5867e-06 
 2.6427e-06 
 2.6752e-06 
 2.5418e-06 
 2.6441e-06 
 2.6707e-06 
 2.6636e-06 
 2.6092e-06 
  2.684e-06 
 2.6297e-06 
 2.6822e-06 
 2.6637e-06 
 2.6863e-06 
 2.6609e-06 
 2.6297e-06 
 2.6946e-06 
 2.5956e-06 
 2.5772e-06 
 2.6872e-06 
 2.6822e-06 
 2.6508e-06 
 2.7004e-06 
 2.6133e-06 
 2.6537e-06 
 2.7032e-06 
 2.6717e-06 
 2.6995e-06 
 2.6345e-06 
 2.6902e-06 
 2.7128e-06 
 2.6579e-06 
 2.7095e-06 
 2.6919e-06 
 2.6428e-06 
 2.7154e-06 
 2.6558e-06 
 2.6879e-06 
 2.7232e-06 
 2.6142e-06 
 2.7109e-06 
 2.7134e-06 
 2.6776e-06 
  2.636e-06 
 2.7296e-06 
 2.5563e-06 
 2.6914e-06 
 2.7313e-06 
 2.5854e-06 
 2.6993e-06 
 2.7286e-06 
 2.6592e-06 
 2.7149e-06 
 2.7419e-06 
 2.6673e-06 
 2.7367e-06 
 2.7202e-06 
 2.6816e-06 
 2.7446e-06 
 2.7123e-06 
 2.6416e-06 
  2.752e-06 
 2.6233e-06 
 2.7398e-06 
 2.7044e-06 
 2.7393e-06 
 2.6606e-06 
 2.7589e-06 
 2.7594e-06 
 2.7105e-06 
  2.727e-06 
 2.7578e-06 
 2.6839e-06 
 2.7386e-06 
 2.7711e-06 
  2.764e-06 
 2.7079e-06 
 2.7486e-06 
 2.7073e-06 
 2.7742e-06 
 2.7304e-06 
 2.6583e-06 
 2.7809e-06 
 2.6855e-06 
 2.7688e-06 
 2.7311e-06 
 2.7653e-06 
 2.6829e-06 
 2.7885e-06 
 2.6019e-06 
 2.7329e-06 
  2.628e-06 
 2.7877e-06 
 2.7547e-06 
 2.7873e-06 
 2.7082e-06 
 2.8006e-06 
 2.7625e-06 
 2.7072e-06 
 2.7913e-06 
 2.7772e-06 
 2.7328e-06 
 2.8039e-06 
 2.7528e-06 
 2.6867e-06 
   2.81e-06 
 2.6648e-06 
 2.7579e-06 
 2.7981e-06 
 2.7073e-06 
 2.7915e-06 
 2.8184e-06 
  2.742e-06 
 2.8162e-06 
 2.7826e-06 
 2.8171e-06 
 2.7325e-06 
 2.8303e-06 
 2.7879e-06 
 2.8188e-06 
  2.806e-06 
 2.7583e-06 
  2.834e-06 
 2.7025e-06 
 2.7748e-06 
 2.8393e-06 
 2.7383e-06 
 2.7847e-06 
 2.8277e-06 
 2.7288e-06 
 2.8178e-06 
 2.8485e-06 
 2.7181e-06 
 2.6674e-06 
 2.7734e-06 
 2.8449e-06 
  2.644e-06 
 2.8106e-06 
 2.8471e-06 
 2.7561e-06 
 2.8603e-06 
 2.8125e-06 
 2.7392e-06 
 2.8466e-06 
  2.835e-06 
 2.7839e-06 
 2.8643e-06 
 2.7296e-06 
 2.7986e-06 
 2.7025e-06 
 2.8689e-06 
 2.8116e-06 
 2.8574e-06 
 2.7513e-06 
 2.8445e-06 
 2.8789e-06 
 2.8737e-06 
 2.7799e-06 
 2.8387e-06 
 2.8774e-06 
 2.7806e-06 
 2.8906e-06 
 2.8388e-06 
 2.8642e-06 
 2.8742e-06 
 2.8092e-06 
 2.7699e-06 
 2.8949e-06 
 2.7401e-06 
 2.8243e-06 
 2.8987e-06 
 2.8386e-06 
 2.8873e-06 
 2.7742e-06 
 2.8706e-06 
 2.9096e-06 
 2.7038e-06 
 2.9026e-06 
 2.8168e-06 
 2.7442e-06 
 2.8669e-06 
 2.6819e-06 
  2.804e-06 
  2.908e-06 
 2.9211e-06 
 2.8627e-06 
  2.766e-06 
  2.734e-06 
 2.8935e-06 
 2.8351e-06 
 2.9018e-06 
 2.9258e-06 
 2.7618e-06 
 2.8465e-06 
 2.9286e-06 
 2.8655e-06 
 2.9175e-06 
  2.795e-06 
 2.8962e-06 
 2.9405e-06 
 2.9316e-06 
 2.8951e-06 
 2.8292e-06 
 2.9387e-06 
 2.8321e-06 
 2.9517e-06 
 2.8852e-06 
 2.9229e-06 
 2.8604e-06 
 2.9294e-06 
 2.9568e-06 
 2.7842e-06 
 2.8113e-06 
 2.8611e-06 
 2.9586e-06 
 2.8922e-06 
 2.8224e-06 
 2.9478e-06 
 2.9219e-06 
 2.7354e-06 
 2.9715e-06 
 2.9605e-06 
 2.8511e-06 
 2.9234e-06 
  2.853e-06 
  2.767e-06 
 2.9696e-06 
 2.7129e-06 
  2.773e-06 
 2.9824e-06 
  2.908e-06 
 2.8848e-06 
 2.9523e-06 
 2.7949e-06 
 2.9568e-06 
 2.9879e-06 
 2.8116e-06 
 2.9886e-06 
 2.8812e-06 
 2.9187e-06 
 2.8431e-06 
 2.9782e-06 
 2.9476e-06 
 3.0026e-06 
 2.9892e-06 
 2.9515e-06 
 2.8735e-06 
 2.8506e-06 
 3.0005e-06 
  3.013e-06 
 2.9331e-06 
 2.9089e-06 
 2.9817e-06 
 2.9836e-06 
 3.0191e-06 
 2.8331e-06 
 2.8289e-06 
 3.0184e-06 
 2.9076e-06 
 2.9449e-06 
 2.8575e-06 
 3.0085e-06 
 2.7635e-06 
 3.0336e-06 
 2.9719e-06 
 3.0176e-06 
 2.9794e-06 
 2.8944e-06 
  2.892e-06 
 3.0313e-06 
 3.0435e-06 
 2.8127e-06 
 2.7417e-06 
 2.9536e-06 
  2.933e-06 
 3.0109e-06 
 2.7931e-06 
 2.8289e-06 
 3.0102e-06 
  2.848e-06 
   3.05e-06 
 3.0478e-06 
 2.9234e-06 
 2.9709e-06 
  2.878e-06 
 3.0386e-06 
 3.0643e-06 
 2.9964e-06 
 3.0454e-06 
  3.007e-06 
 2.9173e-06 
 2.8954e-06 
 3.0618e-06 
 3.0735e-06 
 2.9764e-06 
  2.957e-06 
 3.0398e-06 
 2.8532e-06 
 3.0357e-06 
 3.0806e-06 
 2.8783e-06 
 3.0766e-06 
 2.9448e-06 
 2.9965e-06 
 2.8976e-06 
 3.0682e-06 
 2.7908e-06 
 3.0945e-06 
 3.0188e-06 
  2.922e-06 
 2.9391e-06 
  3.034e-06 
 3.0724e-06 
 3.0919e-06 
 3.1028e-06 
 2.9941e-06 
 2.9802e-06 
 2.7691e-06 
 3.0679e-06 
 2.8841e-06 
 3.0604e-06 
 2.8449e-06 
 2.8393e-06 
 3.1105e-06 
 2.8042e-06 
 3.1044e-06 
 2.9513e-06 
 3.0213e-06 
  2.921e-06 
 3.0971e-06 
 3.1238e-06 
 3.0405e-06 
 2.9601e-06 
 3.0602e-06 
 3.0982e-06 
 3.1209e-06 
 2.9135e-06 
  3.131e-06 
 3.0123e-06 
 3.0025e-06 
 3.0952e-06 
 2.8919e-06 
 3.0834e-06 
 3.1392e-06 
  3.131e-06 
 3.0449e-06 
 2.9655e-06 
 2.9361e-06 
 2.8273e-06 
 3.1249e-06 
 2.8797e-06 
 3.1518e-06 
 3.0603e-06 
 2.9791e-06 
 3.0852e-06 
 3.1224e-06 
 3.1487e-06 
 2.9362e-06 
 3.1577e-06 
  3.029e-06 
 3.0229e-06 
  3.121e-06 
 2.9121e-06 
 3.1047e-06 
 2.7885e-06 
 2.8683e-06 
 3.1666e-06 
 2.8526e-06 
 3.1557e-06 
  3.067e-06 
 2.9542e-06 
 2.9799e-06 
 3.1511e-06 
 2.8029e-06 
  3.178e-06 
 3.0785e-06 
 2.9963e-06 
 3.1085e-06 
 3.1444e-06 
 3.1747e-06 
  2.929e-06 
 3.1823e-06 
 3.0449e-06 
 3.0417e-06 
  3.145e-06 
 2.9172e-06 
 3.1234e-06 
 3.1918e-06 
 2.8853e-06 
 3.1779e-06 
 3.0871e-06 
 2.9651e-06 
 2.8417e-06 
 2.9928e-06 
 3.1752e-06 
 3.2019e-06 
 3.0935e-06 
 3.0113e-06 
 3.1294e-06 
 3.1637e-06 
 3.1983e-06 
 2.9445e-06 
  3.204e-06 
 3.0584e-06 
 3.0556e-06 
 3.1665e-06 
 2.9341e-06 
 2.8842e-06 
 3.1392e-06 
 3.2142e-06 
 2.8562e-06 
 2.8017e-06 
 3.1969e-06 
 3.1046e-06 
 2.9796e-06 
 3.1964e-06 
  2.996e-06 
 3.2224e-06 
 3.1058e-06 
 2.7988e-06 
 3.0244e-06 
 3.1477e-06 
 3.1792e-06 
 3.2186e-06 
 2.9443e-06 
 3.2221e-06 
 3.0722e-06 
 3.0648e-06 
 3.1846e-06 
 2.9362e-06 
 2.8971e-06 
 3.2329e-06 
 3.1508e-06 
 3.1193e-06 
 3.2117e-06 
  2.852e-06 
 2.9858e-06 
 3.2139e-06 
 3.0066e-06 
 3.2388e-06 
 3.1129e-06 
 3.0341e-06 
 3.1622e-06 
 3.1901e-06 
 3.2347e-06 
 2.9588e-06 
 3.2354e-06 
 3.0837e-06 
 3.0678e-06 
 3.1987e-06 
 2.9478e-06 
 2.8891e-06 
 3.2468e-06 
 3.1573e-06 
 2.8561e-06 
 3.1295e-06 
 3.2212e-06 
  2.993e-06 
 2.8061e-06 
 3.2267e-06 
 3.0039e-06 
 3.2497e-06 
 3.1148e-06 
 3.0448e-06 
 3.1722e-06 
 3.1952e-06 
 3.2454e-06 
 2.7925e-06 
 3.2425e-06 
 3.0894e-06 
 2.9504e-06 
 3.0645e-06 
 3.2074e-06 
 2.9316e-06 
 3.2546e-06 
 3.1577e-06 
 2.8605e-06 
 3.1354e-06 
 2.9059e-06 
 3.0073e-06 
 3.2239e-06 
 3.2335e-06 
 2.9909e-06 
 3.2539e-06 
 3.1108e-06 
 3.0447e-06 
 3.1763e-06 
  3.193e-06 
 3.2494e-06 
 2.8883e-06 
 2.9482e-06 
 3.2423e-06 
 3.0914e-06 
 3.0561e-06 
 3.2096e-06 
 2.9681e-06 
 3.2549e-06 
 3.1505e-06 
 2.8561e-06 
 3.1348e-06 
  2.999e-06 
 3.2185e-06 
 3.2328e-06 
 2.9857e-06 
 2.7989e-06 
 3.2495e-06 
 3.0991e-06 
 3.0436e-06 
 3.1736e-06 
  3.182e-06 
 3.2449e-06 
   2.93e-06 
 3.2326e-06 
 3.0859e-06 
 2.7798e-06 
 3.2035e-06 
 3.0426e-06 
 2.9462e-06 
 3.2456e-06 
 3.1344e-06 
 2.8549e-06 
 3.1274e-06 
 2.9973e-06 
 3.2029e-06 
 3.2227e-06 
 2.9682e-06 
 3.2348e-06 
 2.8773e-06 
 3.0793e-06 
 3.0332e-06 
 3.1622e-06 
 3.1605e-06 
 3.2299e-06 
 2.9082e-06 
 2.9552e-06 
 2.9239e-06 
 3.2116e-06 
 3.0743e-06 
 3.1876e-06 
 3.0207e-06 
 3.2249e-06 
 3.1078e-06 
 2.8534e-06 
 3.1113e-06 
 2.9793e-06 
 3.1751e-06 
 3.2014e-06 
 2.9484e-06 
 3.2075e-06 
 2.7932e-06 
 3.0187e-06 
 3.0495e-06 
 3.1408e-06 
 3.1261e-06 
 3.2024e-06 
 2.8906e-06 
  3.055e-06 
 3.1768e-06 
 2.9258e-06 
 3.1598e-06 
 2.9914e-06 
 3.1904e-06 
 3.0683e-06 
  2.765e-06 
 2.8569e-06 
 3.0855e-06 
 2.9654e-06 
 3.1326e-06 
 2.8554e-06 
 3.1666e-06 
 2.9274e-06 
 3.1649e-06 
 2.9991e-06 
  3.007e-06 
 3.1071e-06 
 3.0768e-06 
 3.1599e-06 
 2.8851e-06 
 3.0273e-06 
 3.1257e-06 
 2.9241e-06 
 2.8757e-06 
 3.1178e-06 
  2.949e-06 
 3.1392e-06 
 3.0144e-06 
 3.0478e-06 
 2.9496e-06 
 2.8505e-06 
 3.0728e-06 
 3.1156e-06 
 2.8875e-06 
 3.1044e-06 
 2.9736e-06 
 2.9522e-06 
 3.0594e-06 
 2.7799e-06 
 3.0994e-06 
 3.0098e-06 
  2.988e-06 
 2.8527e-06 
 3.0553e-06 
 2.8951e-06 
  3.059e-06 
 2.8979e-06 
 3.0686e-06 
 2.8462e-06 
 2.9433e-06 
 2.8531e-06 
  2.997e-06 
 2.9292e-06 
  2.993e-06 
 2.7733e-06 
 3.0457e-06 
 2.8557e-06 
  3.023e-06 
 2.9346e-06 
 2.8809e-06 
  2.995e-06 
 3.0181e-06 
 2.9228e-06 
 2.8566e-06 
 2.9375e-06 
 2.9627e-06 
 2.8435e-06 
  2.891e-06 
 2.9808e-06 
 2.8315e-06 
 2.9755e-06 
 2.8535e-06 
 2.9305e-06 
 2.8887e-06 
 2.8668e-06 
 2.8902e-06 
  2.954e-06 
 2.8017e-06 
 2.9176e-06 
 2.8874e-06 
 2.7939e-06 
 2.9118e-06 
 2.9131e-06 
 2.8131e-06 
 2.7679e-06 
  2.873e-06 
 2.8451e-06 
 2.8596e-06 
 2.8806e-06 
 2.7532e-06 
 2.7954e-06 
  2.857e-06 
 2.8526e-06 
 2.7432e-06 
 2.8474e-06 
 2.8511e-06 
 2.7619e-06 
 2.8376e-06 
 2.8394e-06 
 2.8473e-06 
 2.7402e-06 
 2.7855e-06 
 2.8299e-06 
 2.8287e-06 
 2.6904e-06 
 2.8076e-06 
 2.7815e-06 
 2.6788e-06 
 2.7961e-06 
 2.6998e-06 
 2.7717e-06 
 2.8251e-06 
 2.7558e-06 
 2.6639e-06 
 2.7106e-06 
 2.6111e-06 
 2.7456e-06 
 2.7993e-06 
 2.9223e-06 
 2.6058e-06 
  2.694e-06 
 2.6885e-06 
 2.6244e-06 
 2.7661e-06 
 2.6809e-06 
 2.5694e-06 
  2.621e-06 
 2.5184e-06 
 2.7033e-06 
 2.7794e-06 
  2.525e-06 
 2.7998e-06 
 2.7535e-06 
 2.6045e-06 
 2.5649e-06 
 2.5342e-06 
 2.8741e-06 
 2.4572e-06 
 2.6254e-06 
 2.7626e-06 
 2.4207e-06 
 2.5214e-06 
 2.8336e-06 
 2.6887e-06 
 2.6295e-06 
 2.4329e-06 
 2.5303e-06 
 2.4339e-06 
 2.8529e-06 
 2.9493e-06 
 2.4303e-06 
 2.3314e-06 
 2.5979e-06 
 2.3199e-06 
 2.7975e-06 
 2.7276e-06 
 2.4254e-06 
 2.4594e-06 
 2.3274e-06 
 2.2822e-06 
 2.4862e-06 
 2.6978e-06 
 2.2065e-06 
  2.319e-06 
 3.0257e-06 
 2.6041e-06 
 2.2114e-06 
 2.5797e-06 
 2.3559e-06 
 2.2845e-06 
 2.2095e-06 
 2.1189e-06 
 2.4794e-06 
 2.0857e-06 
 2.7613e-06 
 2.2187e-06 
 2.7354e-06 
 2.8293e-06 
 2.3481e-06 
 2.9219e-06 
 2.0915e-06 
 2.0891e-06 
 2.3299e-06 
 2.6387e-06 
 1.9653e-06 
 2.0878e-06 
 2.5139e-06 
 1.9624e-06 
 2.5317e-06 
 2.1593e-06 
 2.8507e-06 
 2.1267e-06 
  2.935e-06 
 1.9611e-06 
  1.884e-06 
 2.7195e-06 
  2.353e-06 
 3.1688e-06 
 1.8261e-06 
 1.9864e-06 
 2.7275e-06 
 2.2406e-06 
 1.8308e-06 
 1.8821e-06 
 2.1595e-06 
 2.5762e-06 
 1.8311e-06 
 1.7014e-06 
  3.211e-06 
 2.4268e-06 
 1.6922e-06 
 2.5016e-06 
 1.9441e-06 
 1.9659e-06 
 1.6906e-06 
 1.6321e-06 
 2.2221e-06 
 2.7214e-06 
 1.5481e-06 
 1.7328e-06 
 2.7675e-06 
 2.1419e-06 
 3.0338e-06 
 2.9565e-06 
 1.5543e-06 
  1.668e-06 
 1.9806e-06 
 2.5423e-06 
 1.5553e-06 
 1.4218e-06 
 3.0976e-06 
 2.3471e-06 
 1.4116e-06 
 2.5033e-06 
 1.7157e-06 
 1.8097e-06 
 2.9338e-06 
 1.4073e-06 
 1.3701e-06 
 2.0954e-06 
 2.7393e-06 
 1.2609e-06 
 1.4644e-06 
 2.8396e-06 
 2.0626e-06 
 3.5087e-06 
 1.2756e-06 
 1.4555e-06 
 1.7993e-06 
  2.512e-06 
 1.2691e-06 
 1.1338e-06 
  3.501e-06 
  2.284e-06 
 1.1298e-06 
 2.5348e-06 
 1.4816e-06 
 1.6686e-06 
 1.1224e-06 
 1.1093e-06 
 1.9783e-06 
 2.7656e-06 
 9.7103e-07 
 1.1894e-06 
 2.9349e-06 
 3.2124e-06 
 2.0173e-06 
 9.9885e-07 
 1.2513e-06 
 1.6236e-06 
 2.5189e-06 
 3.1672e-06 
 3.3367e-06 
 9.8446e-07 
 8.6059e-07 
 3.0602e-06 
 2.2428e-06 
 8.4925e-07 
 1.2479e-06 
 2.6272e-06 
 1.5449e-06 
 8.5861e-07 
  8.558e-07 
 1.8831e-06 
 2.8498e-06 
 9.1252e-07 
 3.1092e-06 
 2.0297e-06 
 6.7846e-07 
 1.4606e-06 
  1.025e-06 
 2.5498e-06 
 7.3989e-07 
 3.9864e-06 
 5.8121e-07 
  6.835e-07 
 3.9189e-06 
 2.2413e-06 
 1.0125e-06 
 2.7972e-06 
 1.4753e-06 
 6.1086e-07 
 4.7628e-07 
 1.8263e-06 
 2.9502e-06 
 6.2363e-07 
 3.3163e-06 
 3.5094e-06 
 2.1371e-06 
 5.9423e-07 
 5.8393e-07 
 1.3199e-06 
 8.2553e-07 
 2.6309e-06 
  3.747e-06 
 4.1163e-07 
 3.5091e-06 
 2.3031e-06 
 6.1249e-07 
 4.6649e-07 
  3.462e-07 
 7.6292e-07 
 3.3311e-06 
 3.0866e-06 
 1.4868e-06 
 7.8908e-08 
  4.196e-07 
 6.5393e-07 
 3.0356e-06 
   1.72e-07 
 1.8263e-06 
   4.52e-07 
 7.1574e-07 
 4.1964e-08 
 2.3943e-07 
 4.1295e-07 
 3.6979e-07 
 3.6768e-06 
 2.4263e-06 
 3.9513e-07 
-1.3352e-07 
  1.172e-06 
 2.8108e-06 
 5.5293e-07 
 -3.262e-07 
 1.4721e-08 
-1.6357e-07 
 4.5685e-06 
 4.4327e-06 
 2.4775e-06 
 -2.707e-07 
-8.0964e-07 
-2.4949e-07 
 3.4788e-06 
 2.1377e-07 
 1.8164e-06 
-1.1807e-06 
-1.6007e-06 
-8.2937e-07 
 1.9969e-06 
 3.3449e-06 
 3.9263e-06 
-7.7311e-07 
  2.927e-06 
 4.0313e-06 
-1.3621e-06 
 1.3088e-06 
 3.0732e-06 
 9.0703e-07 
-1.3624e-06 
 -1.615e-06 
-7.3638e-07 
 2.7799e-06 
-2.1431e-06 
 3.9921e-06 
-2.6954e-06 
  4.453e-06 
   3.66e-07 
 3.9677e-06 
 2.5346e-06 
-4.6821e-07 
 2.3563e-06 
 3.8766e-06 
 3.6282e-06 
-1.4997e-06 
-2.3509e-06 
-2.3705e-06 
 4.4544e-06 
 3.6654e-06 
 1.6699e-06 
 3.4593e-06 
 2.0015e-06 
-1.8192e-06 
-1.3207e-06 
 -9.643e-07 
 3.2555e-06 
 4.9783e-06 
-4.5162e-07 
 9.6466e-07 
 5.0989e-06 
  4.526e-06 
 3.6853e-06 
-1.5931e-06 
-1.6123e-06 
 3.0125e-06 
 1.2089e-06 
-7.8623e-07 
 4.0212e-06 
 1.8187e-06 
 4.4321e-06 
 2.1672e-06 
    4.9e-06 
  4.511e-06 
 2.7129e-06 
 2.3521e-06 
 3.9498e-06 
 3.9525e-06 
 2.1552e-06 
 3.8874e-06 
 2.4972e-06 
 1.9927e-06 
 4.5699e-06 
  7.469e-06 
 5.1149e-06 
 4.8957e-06 
 2.4664e-06 
 2.2824e-06 
 7.4874e-06 
 5.2511e-06 
 4.9464e-06 
 3.9325e-06 
  4.545e-06 
 4.4479e-06 
 7.2453e-06 
  7.755e-06 
 6.1021e-06 
 7.4713e-06 
 1.2374e-05 
 5.3689e-06 
  5.359e-06 
 4.1856e-06 
 4.5244e-06 
 1.2121e-05 
 5.6949e-06 
 1.2258e-05 
 1.4038e-05 
 7.4502e-06 
 5.4917e-06 
 1.1852e-05 
 4.6133e-06 
 1.3637e-05 
 1.1491e-05 
 5.5118e-06 
 4.8073e-06 
  9.593e-06 
 5.6672e-06 
 1.1268e-05 
 5.9551e-06 
  1.297e-05 
 5.5949e-06 
 6.9485e-06 
 4.9241e-06 
 4.9159e-06 
 6.2626e-06 
  1.196e-05 
  4.975e-06 
 9.0695e-06 
 5.7736e-06 
 6.0814e-06 
 5.4947e-06 
 5.1164e-06 
 6.8054e-06 
 1.1953e-05 
 8.6902e-06 
 5.3401e-06 
 5.8483e-06 
  6.504e-06 
 6.1412e-06 
 6.6891e-06 
 5.0975e-06 
 1.0009e-05 
 5.8033e-06 
 7.8767e-06 
 1.0537e-05 
 5.3741e-06 
 5.2844e-06 
 7.8948e-06 
 1.1088e-05 
 6.1612e-06 
 6.6175e-06 
  6.494e-06 
 5.6712e-06 