# vtk DataFile Version 2.0
Steady-state stabilized finite element formulation for the 2D incopmpressible Navier Stokes equations
ASCII

DATASET UNSTRUCTURED_GRID
POINTS 8230 double
    2.2        0.41           0 
  2.188        0.41           0 
    2.2     0.39794           0 
 2.1818     0.39953           0 
  2.176        0.41           0 
    2.2     0.38588           0 
 2.1878     0.38913           0 
 2.1758     0.38914           0 
 2.1698     0.39954           0 
 2.1639        0.41           0 
    2.2     0.37382           0 
 2.1828     0.37793           0 
 2.1638     0.38915           0 
 2.1698     0.37876           0 
 2.1578     0.39955           0 
 2.1883     0.36809           0 
 2.1519        0.41           0 
 2.1758     0.36836           0 
    2.2     0.36176           0 
 2.1578     0.37877           0 
 2.1518     0.38916           0 
 2.1828      0.3586           0 
 2.1638     0.36837           0 
 2.1458     0.39956           0 
 2.1399        0.41           0 
 2.1698     0.35797           0 
    2.2     0.34971           0 
 2.1458     0.37878           0 
 2.1877     0.34756           0 
 2.1518     0.36838           0 
 2.1398     0.38917           0 
 2.1757     0.34757           0 
 2.1578     0.35798           0 
 2.1338     0.39956           0 
 2.1279        0.41           0 
 2.1637     0.34758           0 
    2.2     0.33765           0 
 2.1398     0.36839           0 
 2.1338     0.37878           0 
 2.1817     0.33718           0 
 2.1458     0.35799           0 
 2.1278     0.38918           0 
 2.1697     0.33719           0 
 2.1517     0.34759           0 
 2.1218     0.39957           0 
 2.1278     0.36839           0 
 2.1877     0.32678           0 
 2.1159        0.41           0 
 2.1577      0.3372           0 
 2.1338       0.358           0 
 2.1218     0.37879           0 
    2.2     0.32559           0 
 2.1757     0.32679           0 
 2.1397      0.3476           0 
 2.1158     0.38919           0 
 2.1637      0.3268           0 
 2.1457     0.33721           0 
 2.1098     0.39959           0 
 2.1218     0.35801           0 
 2.1158     0.36841           0 
 2.1277     0.34761           0 
 2.1098     0.37881           0 
 2.1828     0.31592           0 
 2.1038        0.41           0 
 2.1517     0.32681           0 
    2.2     0.31353           0 
 2.1697      0.3164           0 
 2.1337     0.33722           0 
 2.1038      0.3892           0 
 2.1577     0.31641           0 
 2.1397     0.32682           0 
 2.0978      0.3996           0 
 2.1098     0.35802           0 
 2.1877     0.30599           0 
 2.1038     0.36842           0 
 2.1157     0.34763           0 
 2.1757     0.30601           0 
 2.1217     0.33723           0 
 2.0978     0.37882           0 
 2.1457     0.31642           0 
 2.0918        0.41           0 
    2.2     0.30147           0 
 2.1637     0.30602           0 
 2.1277     0.32683           0 
 2.0918     0.38921           0 
 2.1517     0.30603           0 
 2.1337     0.31643           0 
 2.0858     0.39961           0 
 2.0978     0.35804           0 
 2.1037     0.34764           0 
 2.1853     0.29523           0 
 2.1097     0.33724           0 
 2.0918     0.36843           0 
 2.1697     0.29562           0 
 2.1157     0.32685           0 
 2.0858     0.37882           0 
 2.0798        0.41           0 
   2.14     0.30558           0 
    2.2     0.28941           0 
 2.1577     0.29563           0 
 2.1217     0.31645           0 
 2.0798     0.38921           0 
 2.0918     0.34765           0 
 2.0977     0.33725           0 
 2.0858     0.35804           0 
 2.1457     0.29564           0 
 2.0738      0.3996           0 
 2.1288     0.30471           0 
 2.1757     0.28522           0 
 2.1037     0.32685           0 
 2.0798     0.36844           0 
 2.1885     0.28288           0 
 2.1651     0.28679           0 
 2.1097     0.31646           0 
 2.0738     0.37883           0 
 2.0678        0.41           0 
    2.2     0.27735           0 
 2.1357     0.29296           0 
 2.1157     0.30606           0 
 2.0678      0.3892           0 
 2.0857     0.33726           0 
 2.0798     0.34765           0 
  2.191     0.27432           0 
 2.1791     0.27542           0 
 2.0917     0.32686           0 
 2.0738     0.35805           0 
 2.1551     0.28095           0 
 2.1672     0.27655           0 
 2.0678     0.36844           0 
 2.0977     0.31647           0 
 2.0618     0.39959           0 
 2.1262     0.29083           0 
  2.142     0.28106           0 
 2.1037     0.30607           0 
 2.0618     0.37882           0 
 2.0557        0.41           0 
    2.2     0.26529           0 
 2.0558     0.38922           0 
 2.0737     0.33727           0 
 2.1143      0.2919           0 
 2.0797     0.32687           0 
 2.0678     0.34766           0 
 2.1841     0.26452           0 
 2.1721     0.26562           0 
 2.1312     0.27994           0 
 2.0857     0.31648           0 
 2.0618     0.35806           0 
 2.1602     0.26679           0 
 2.0951     0.30425           0 
 2.0558     0.36847           0 
 2.0498      0.3996           0 
 2.1482     0.26791           0 
 2.1193     0.28102           0 
 2.1006     0.29326           0 
 2.0498     0.37882           0 
 2.1363     0.26905           0 
 2.0617     0.33728           0 
 2.0677     0.32688           0 
 2.0437        0.41           0 
 2.1891     0.25362           0 
    2.2     0.25324           0 
 2.1771     0.25474           0 
 2.0737     0.31649           0 
 2.0558     0.34768           0 
 2.0831     0.30475           0 
 2.0438     0.38921           0 
 2.1074      0.2821           0 
 2.1651     0.25588           0 
 2.0498     0.35807           0 
 2.1243     0.27012           0 
 2.1533     0.25702           0 
 2.0886     0.29412           0 
 2.0438     0.36847           0 
 2.0378      0.3996           0 
 2.1412     0.25816           0 
 2.1124     0.27121           0 
 2.0378     0.37881           0 
 2.0938     0.28342           0 
 2.1294     0.25926           0 
 2.0557     0.32689           0 
 2.0497     0.33729           0 
 2.0617      0.3165           0 
 2.1821      0.2438           0 
 2.1702     0.24498           0 
 2.0677      0.3061           0 
 2.0438     0.34769           0 
 2.0317        0.41           0 
    2.2     0.24118           0 
 2.0767     0.29462           0 
 2.1582     0.24608           0 
 2.0318      0.3892           0 
 2.0378     0.35809           0 
 2.0991     0.27276           0 
 2.1175     0.26035           0 
 2.1463     0.24727           0 
 2.0823     0.28407           0 
 2.0318     0.36849           0 
 2.0259     0.39962           0 
 2.1343     0.24835           0 
 2.1046     0.26214           0 
 2.0258     0.37889           0 
 2.0437     0.32691           0 
 2.0497     0.31651           0 
 2.0874     0.27332           0 
 2.0648     0.29526           0 
  2.187     0.23287           0 
 2.1751     0.23406           0 
 2.0377      0.3373           0 
 2.0557     0.30611           0 
 2.1225     0.24947           0 
 2.1632     0.23519           0 
 2.0318      0.3477           0 
 2.0704     0.28472           0 
 2.0197        0.41           0 
 2.1513     0.23628           0 
    2.2     0.22912           0 
 2.0198     0.38926           0 
 2.0257     0.35811           0 
 2.1102     0.25151           0 
 2.0926     0.26262           0 
 2.1394     0.23747           0 
 2.0758     0.27408           0 
 2.0198     0.36852           0 
 2.1275     0.23853           0 
 2.0528      0.2957           0 
 2.0139     0.39963           0 
 2.0377     0.31656           0 
 2.1904      0.2229           0 
 2.0436     0.30616           0 
 2.0317     0.32694           0 
 2.1801     0.22317           0 
 2.0982       0.252           0 
 2.1682     0.22426           0 
 2.0138     0.37887           0 
 2.0257     0.33732           0 
 2.0584     0.28511           0 
 2.0811     0.26328           0 
 2.1562     0.22547           0 
 2.1155     0.23974           0 
 2.0198     0.34772           0 
 2.1443     0.22654           0 
 2.0639     0.27464           0 
 2.0076        0.41           0 
    2.2     0.21706           0 
 2.0138     0.35812           0 
 2.0078     0.38926           0 
 2.0863     0.25247           0 
 2.1324     0.22777           0 
 2.1036     0.24077           0 
 2.0691     0.26415           0 
 2.0078     0.36851           0 
 2.0464     0.28553           0 
 2.0316      0.3062           0 
 2.0257     0.31653           0 
 2.1204     0.22881           0 
 2.1874     0.21219           0 
 2.0019     0.39967           0 
 2.1732     0.21338           0 
 2.0197     0.32694           0 
 2.0376     0.29579           0 
 2.1613     0.21457           0 
 2.0917     0.24197           0 
 2.0137     0.33734           0 
 2.0018     0.37891           0 
 2.0743     0.25336           0 
 2.1493     0.21567           0 
 2.1085     0.23007           0 
 2.0078     0.34775           0 
 2.0496     0.27501           0 
 2.1374     0.21688           0 
 1.9956        0.41           0 
 2.0018     0.35812           0 
 2.0556     0.26462           0 
    2.2       0.205           0 
 1.9958      0.3893           0 
 2.1255     0.21797           0 
 2.0794     0.24269           0 
 2.0966      0.2311           0 
 2.0197     0.30616           0 
 1.9958     0.36854           0 
 2.0616     0.25423           0 
 2.0257     0.29581           0 
 2.0137     0.31656           0 
 2.1781     0.20246           0 
 2.1901     0.20135           0 
 2.1662     0.20364           0 
 2.0077     0.32696           0 
 2.1136      0.2192           0 
 2.0316     0.28539           0 
 2.1543     0.20477           0 
 1.9899     0.39971           0 
 2.0018     0.33735           0 
 2.0376     0.27502           0 
  2.085     0.23215           0 
 2.1423     0.20594           0 
 1.9898     0.37891           0 
 2.0682     0.24327           0 
[...]
POINT_DATA 8230
SCALARS pressure double
LOOKUP_TABLE default
  0.0001692 
 0.00022587 
  0.0001383 
 0.00028458 
 0.00036903 
 0.00012358 
 0.00021423 
 0.00037152 
 0.00045683 
 0.00054076 
 9.2243e-05 
 0.00026715 
 0.00054508 
 0.00045927 
 0.00063167 
 0.00019071 
 0.00071703 
 0.00037294 
 8.6451e-05 
  0.0006343 
 0.00072115 
 0.00026242 
 0.00054654 
  0.0008081 
 0.00089435 
 0.00045585 
 0.00010561 
  0.0008105 
 0.00020083 
 0.00072259 
 0.00089779 
 0.00036491 
 0.00063326 
 0.00098506 
  0.0010719 
 0.00054223 
 9.7651e-05 
  0.0008996 
 0.00098756 
 0.00027561 
 0.00081074 
   0.001075 
 0.00045182 
 0.00072084 
  0.0011624 
   0.001077 
 0.00020062 
  0.0012497 
 0.00063052 
 0.00098833 
  0.0011649 
  0.0001033 
 0.00036392 
 0.00089924 
  0.0012525 
 0.00054125 
 0.00080926 
  0.0013402 
  0.0011661 
  0.0012546 
  0.0010774 
  0.0013426 
 0.00026212 
  0.0014279 
 0.00071946 
 8.0929e-05 
 0.00045392 
 0.00098825 
  0.0014304 
 0.00063201 
 0.00089758 
  0.0015183 
  0.0013442 
 0.00019468 
  0.0014325 
  0.0012555 
 0.00037026 
  0.0011668 
  0.0015206 
 0.00080804 
  0.0016065 
 9.6373e-05 
 0.00054418 
  0.0010779 
  0.0016084 
 0.00072096 
  0.0009851 
  0.0016965 
  0.0015224 
  0.0014338 
 0.00022253 
  0.0013451 
  0.0016107 
 0.00045471 
  0.0012568 
  0.0016989 
  0.0017852 
 0.00088769 
 9.2924e-05 
 0.00063518 
  0.0011702 
  0.0017868 
  0.0016123 
  0.0015234 
  0.0017008 
 0.00080265 
   0.001875 
  0.0010651 
 0.00034959 
  0.0014342 
  0.0017891 
 0.00018328 
 0.00052224 
  0.0013465 
  0.0018774 
  0.0019641 
  8.781e-05 
 0.00095307 
  0.0012578 
  0.0019654 
  0.0017024 
  0.0017909 
 0.00015622 
 0.00031567 
   0.001613 
  0.0018795 
 0.00067526 
 0.00049145 
  0.0019677 
   0.001523 
  0.0020537 
  0.0011079 
 0.00085813 
  0.0014209 
  0.0020561 
  0.0021431 
  7.818e-05 
  0.0021444 
  0.0018811 
  0.0012849 
  0.0017931 
  0.0019697 
 0.00024605 
 0.00042121 
  0.0010336 
  0.0017044 
  0.0020583 
 0.00059375 
  0.0015761 
  0.0021466 
  0.0022327 
 0.00077289 
  0.0012038 
  0.0014824 
  0.0022349 
 0.00095526 
    0.00206 
  0.0019713 
  0.0023225 
  0.0001863 
 9.1173e-05 
 0.00034506 
  0.0018834 
  0.0021488 
  0.0017458 
  0.0023235 
  0.0013833 
  0.0005211 
  0.0022375 
  0.0011292 
 0.00069818 
  0.0016626 
  0.0023261 
  0.0024116 
 0.00087882 
  0.0013082 
  0.0024141 
  0.0015827 
  0.0010547 
  0.0021504 
  0.0022393 
  0.0020614 
 0.00027244 
 0.00044819 
  0.0019717 
  0.0023281 
   0.002502 
 8.0108e-05 
   0.001836 
 0.00062544 
  0.0025027 
   0.002417 
   0.001503 
  0.0012331 
 0.00080384 
  0.0017575 
  0.0025057 
  0.0025906 
 0.00098101 
  0.0014227 
  0.0025939 
  0.0023299 
  0.0022413 
  0.0016796 
  0.0020169 
  0.0002057 
 0.00037804 
  0.0024187 
  0.0021527 
  0.0011574 
 0.00055268 
  0.0025077 
  0.0019348 
  0.0026823 
 0.00072942 
 8.6895e-05 
  0.0026825 
  0.0025967 
  0.0013409 
  0.0016004 
 0.00090746 
  0.0018547 
  0.0026854 
  0.0010862 
  0.0022012 
  0.0027704 
  0.0024213 
 0.00016213 
  0.0023347 
  0.0025105 
 0.00031082 
  0.0015205 
  0.0004809 
  0.0027738 
  0.0025989 
  0.0021118 
  0.0017769 
 0.00065692 
  0.0012611 
  0.0026876 
 0.00083391 
  0.0020331 
  0.0028625 
 8.7623e-05 
  0.0027765 
  0.0028625 
  0.0016978 
  0.0010124 
  0.0014404 
  0.0019559 
  0.0028654 
  0.0022952 
  0.0025127 
  0.0026013 
  0.0011907 
 0.00020006 
  0.0029505 
 0.00040759 
  0.0026904 
  0.0024242 
 0.00058322 
  0.0016185 
   0.002779 
  0.0029539 
   0.001877 
 0.00076039 
  0.0013682 
  0.0028679 
  0.0022455 
 0.00093576 
  0.0030431 
  0.0029567 
  0.0021573 
 8.5796e-05 
  0.0030428 
  0.0011146 
  0.0017977 
  0.0015449 
  0.0026929 
  0.0030457 
  0.0020688 
  0.0026041 
  0.0027816 
 0.00033668 
 0.00017443 
 0.00050994 
  0.0028706 
  0.0012976 
  0.0025161 
  0.0006871 
  0.0031311 
  0.0029591 
   0.002428 
   0.001716 
 0.00086711 
  0.0031344 
  0.0019718 
  0.0030485 
  0.0023382 
  0.0014692 
  0.0010328 
  0.0032242 
  0.0031373 
  0.0022488 
 8.1297e-05 
  0.0032234 
  0.0012286 
  0.0018929 
   0.002784 
  0.0028734 
  0.0016447 
 0.00026025 
 0.00043417 
   0.002696 
  0.0029623 
 0.00061133 
  0.0032264 
  0.0021607 
  0.0026067 
  0.0030511 
 0.00078924 
  0.0014091 
   0.003312 
  0.0031398 
  0.0025181 
  0.0009618 
  0.0018212 
  0.0033155 
  0.0020727 
  0.0032293 
  0.0024291 
  0.0033184 
  0.0023405 
   0.003406 
  0.0016136 
  0.0029645 
  0.0001789 
  0.0034047 
 8.6117e-05 
  0.0028759 
   0.003054 
    0.00176 
 0.00035953 
  0.0013357 
 0.00053664 
  0.0020019 
  0.0027871 
  0.0031429 
  0.0011816 
 0.00071566 
  0.0026979 
  0.0032321 
  0.0034075 
  0.0022532 
 0.00088929 
  0.0015086 
  0.0033209 
  0.0026094 
   0.003494 
  0.0019234 
  0.0034969 
  0.0021708 
  0.0034104 
  0.0025206 
  0.0011103 
   0.003145 
  0.0030565 
 0.00028378 
  0.0034997 
  0.0029676 
  0.0024321 
   0.003235 
 0.00046151 
  0.0018245 
   0.003589 
 0.00064042 
  0.0028785 
  0.0035869 
  0.0033239 
 8.1581e-05 
  0.0020878 
 0.00081526 
  0.0012746 
  0.0034132 
  0.0027895 
  0.0035886 
  0.0023458 
   0.001718 
  0.0014435 
  0.0035024 
  0.0027014 
  0.0010171 
  0.0036773 
  0.0019976 
  0.0035922 
  0.0036789 
  0.0026123 
  0.0022607 
  0.0032369 
  0.0016303 
  0.0033263 
  0.0031485 
  0.0011904 
 0.00019599 
 0.00038891 
 0.00056606 
  0.0034157 
  0.0030584 
 0.00074305 
  0.0036813 
  0.0025236 
  0.0029696 
  0.0035048 
  0.0019094 
  0.0037744 
  0.0037702 
 8.6905e-05 
  0.0021746 
  0.0013591 
  0.0035946 
   0.002882 
 0.00092442 
  0.0024384 
  0.0037691 
  0.0036841 
  0.0027931 
  0.0018167 
  0.0010995 
 0.00014879 
  0.0038643 
  0.0015435 
 0.00047592 
  0.0020888 
 0.00030459 
   0.003774 
  0.0027039 
  0.0034183 
  0.0038607 
  0.0033291 
  0.0023523 
  0.0032381 
  0.0035075 
 0.00064915 
  0.0031504 
  0.0035969 
  0.0012745 
 0.00082962 
  0.0036863 
  0.0038621 
  0.0030627 
  0.0026175 
  0.0017256 
  0.0019935 
  0.0039592 
  0.0022681 
  0.0039586 
 8.9303e-05 
  0.0037763 
  0.0029743 
  0.0014543 
  0.0010073 
  0.0025319 
  0.0039393 
  0.0038666 
  0.0028855 
 0.00038336 
 0.00021294 
  0.0011851 
  0.0021733 
   0.001899 
 0.00055948 
  0.0035102 
  0.0034192 
  0.0035994 
  0.0016361 
   0.002797 
   0.003331 
  0.0036889 
   0.003958 
  0.0040758 
  0.0040498 
 0.00073947 
  0.0024447 
  0.0037782 
  0.0032437 
  0.0013637 
 0.00091838 
  0.0031544 
  0.0038678 
  0.0040477 
  0.0020771 
  0.0027113 
  0.0018151 
  0.0041371 
  0.0023521 
  0.0039583 
  0.0030662 
 8.3498e-05 
  0.0010966 
  0.0041149 
  0.0015419 
 0.00048195 
 0.00031806 
  0.0026191 
  0.0029777 
  0.0040495 
  0.0041954 
  0.0036005 
 0.00017267 
  0.0036912 
 0.00065159 
  0.0035125 
   0.003781 
  0.0012755 
  0.0019902 
  0.0022575 
  0.0038704 
  0.0034247 
  0.0017206 
   0.002888 
  0.0041424 
  0.0008257 
  0.0025301 
  0.0039595 
  0.0033357 
  0.0014552 
  0.0040492 
  0.0032472 
  0.0010038 
  0.0027975 
  0.0042336 
  0.0021659 
  0.0042928 
  0.0043075 
  0.0018989 
  0.0041398 
  0.0031588 
  0.0024373 
  0.0043198 
 0.00040383 
  0.0011814 
 0.00010256 
  0.0016313 
 0.00056814 
   0.002707 
  0.0037819 
  0.0036936 
  0.0030676 
  0.0038719 
  0.0042301 
 0.00022663 
  0.0036062 
  0.0039628 
 0.00073682 
  0.0013603 
   0.003516 
  0.0040535 
  0.0020758 
  0.0023446 
  0.0018059 
 0.00091176 
  0.0029785 
  0.0043201 
   0.004391 
  0.0041407 
  0.0034286 
   0.002616 
  0.0015389 
  0.0042308 
  0.0033399 
  0.0010904 
  0.0044153 
  0.0028863 
  0.0022521 
  0.0019831 
 0.00041847 
  0.0032485 
    0.00432 
  0.0025247 
  0.0044885 
    0.00127 
  0.0038753 
   0.003964 
 9.2196e-05 
  0.0006412 
  0.0017158 
  0.0040517 
  0.0037871 
  0.0045008 
  0.0036964 
  0.0027957 
  0.0031587 
  0.0044076 
  0.0041449 
 0.00082184 
  0.0045044 
  0.0036082 
  0.0014455 
  0.0042357 
   0.002162 
  0.0024312 
      0.001 
 0.00022004 
   0.004322 
    0.00352 
  0.0018909 
  0.0030677 
  0.0045047 
  0.0027029 
  0.0034298 
  0.0044101 
  0.0045998 
  0.0016223 
  0.0011781 
  0.0029765 
 0.00055819 
  0.0046053 
 0.00038355 
  0.0023422 
  0.0033388 
  0.0020691 
  0.0045006 
  0.0040578 
  0.0039664 
  0.0041455 
  0.0026086 
  0.0013548 
  0.0046783 
  0.0038783 
  0.0042346 
 0.00073401 
  0.0018012 
 9.1297e-05 
   0.003788 
  0.0046938 
  0.0043269 
  0.0032489 
  0.0028869 
  0.0009095 
  0.0045993 
  0.0037013 
  0.0046954 
  0.0044249 
  0.0015301 
  0.0010842 
  0.0022473 
  0.0036114 
  0.0025212 
  0.0031599 
  0.0019785 
  0.0045129 
  0.0046995 
 0.00027829 
  0.0027851 
   0.003521 
 0.00046126 
  0.0017052 
  0.0012616 
  0.0047888 
  0.0045982 
  0.0041481 
 0.00064118 
  0.0030643 
  0.0042367 
  0.0040585 
  0.0043275 
  0.0034304 
  0.0024263 
  0.0021517 
  0.0039715 
  0.0048071 
  0.0044211 
 0.00081989 
  0.0046915 
    0.00144 
  0.0027024 
   0.004862 
  0.0018826 
   0.003884 
  0.0045129 
 0.00010267 
  0.0048789 
  0.0033405 
 0.00099544 
  0.0029647 
  0.0037924 
  0.0047836 
  0.0046016 
 0.00019129 
  0.0048808 
  0.0016181 
  0.0023302 
  0.0011704 
  0.0037029 
  0.0046962 
  0.0026058 
   0.003253 
  0.0020625 
 0.00037395 
 0.00054785 
  0.0036119 
  0.0048937 
  0.0028753 
  0.0047776 
 0.00072435 
  0.0017923 
  0.0013471 
   0.004415 
  0.0042374 
  0.0043275 
  0.0049718 
  0.0041534 
  0.0045092 
  0.0035219 
  0.0040668 
  0.0045941 
  0.0031423 
  0.0048708 
 0.00090219 
  0.0025097 
  0.0022375 
  0.0039735 
  0.0015254 
  0.0027852 
  0.0046812 
  0.0050451 
  0.0019651 
  0.0010801 
 9.7538e-05 
  0.0050059 
  0.0034303 
  0.0047767 
  0.0050624 
  0.0030448 
  0.0038847 
  0.0049702 
 0.00026171 
  0.0050635 
  0.0017042 
   0.003794 
  0.0012552 
   0.002412 
  0.0048697 
 0.00046128 
  0.0026862 
  0.0033445 
    0.00215 
 0.00063748 
  0.0045061 
  0.0044203 
  0.0045982 
  0.0037036 
  0.0043355 
  0.0049581 
 0.00080833 
  0.0029548 
  0.0014322 
  0.0018821 
  0.0042471 
  0.0046905 
  0.0051551 
  0.0047671 
  0.0041543 
  0.0050942 
  0.0048517 
  0.0032142 
 0.00098113 
  0.0036122 
  0.0040664 
  0.0025923 
  0.0023299 
  0.0050596 
   0.001616 
  0.0028605 
  0.0051722 
  0.0052292 
  0.0011586 
  0.0031213 
  0.0020658 
   0.003982 
  0.0049591 
  0.0035172 
 0.00018688 
  0.0001036 
  0.0052466 
 0.00036613 
  0.0050378 
 0.00054664 
  0.0052512 
   0.001795 
  0.0038856 
  0.0013402 
  0.0051729 
  0.0022449 
  0.0025073 
  0.0046866 
  0.0046034 
 0.00071943 
  0.0045162 
  0.0034277 
  0.0027736 
  0.0044251 
  0.0047812 
  0.0052445 
  0.0037944 
 0.00088995 
  0.0043368 
   0.005121 
   0.004867 
  0.0030414 
  0.0049342 
  0.0015191 
  0.0019723 
  0.0042485 
  0.0053406 
  0.0032884 
  0.0050457 
  0.0010615 
   0.003706 
  0.0041611 
  0.0053544 
  0.0026854 
  0.0053008 
  0.0024192 
  0.0012407 
  0.0052419 
   0.001707 
  0.0029537 
 0.00027216 
  0.0051389 
  0.0004499 
  0.0021419 
  0.0054142 
  0.0040759 
  0.0032141 
 9.8453e-05 
  0.0054316 
 0.00062638 
  0.0052224 
  0.0036016 
  0.0039741 
  0.0046996 
  0.0054369 
  0.0018853 
  0.0048721 
   0.004794 
  0.0014183 
  0.0046061 
  0.0034785 
 0.00080318 
  0.0023149 
  0.0025911 
  0.0051098 
  0.0052905 
  0.0045198 
   0.004965 
  0.0053656 
   0.005044 
  0.0028655 
   0.004427 
 0.00098011 
  0.0054428 
  0.0038845 
  0.0031343 
  0.0043359 
  0.0020548 
  0.0015982 
  0.0011473 
  0.0055262 
  0.0052192 
  0.0033952 
  0.0042534 
  0.0037948 
 0.00020049 
  0.0024901 
  0.0003671 
  0.0022053 
  0.0055315 
  0.0027647 
  0.0054842 
  0.0013093 
  0.0017942 
  0.0053152 
 0.00053493 
  0.0030403 
  0.0041587 
  0.0054265 
  0.0055995 
  0.0037001 
  0.0033146 
 0.00071083 
  0.0050592 
  0.0054034 
  0.0047877 
  0.0048843 
 0.00010952 
  0.0049744 
  0.0056167 
  0.0046987 
  0.0040659 
  0.0051376 
  0.0019702 
 0.00089239 
   0.005621 
  0.0046109 
  0.0035698 
  0.0014913 
  0.0023925 
  0.0052838 
  0.0026676 
  0.0045163 
  0.0055521 
  0.0029448 
  0.0010661 
  0.0032154 
  0.0039766 
  0.0056244 
   0.004433 
  0.0053672 
  0.0021443 
   0.001241 
 0.00022581 
  0.0034923 
   0.005711 
  0.0043458 
  0.0038859 
 0.00044954 
  0.0016959 
  0.0025698 
 0.00062262 
   0.005716 
  0.0037592 
  0.0014068 
   0.002843 
  0.0054833 
  0.0042529 
  0.0018756 
  0.0056847 
  0.0050759 
  0.0031379 
  0.0049917 
  0.0056219 
  0.0051535 
  0.0048811 
 0.00080552 
  0.0052311 
  0.0057849 
  0.0033975 
  0.0055879 
  0.0047944 
  0.0015584 
  0.0046994 
  0.0053665 
 0.00011762 
  0.0058017 
  0.0041564 
 0.00098088 
  0.0020614 
  0.0030433 
  0.0058054 
  0.0036698 
  0.0054534 
  0.0046148 
  0.0023208 
  0.0027507 
  0.0011581 
  0.0057239 
  0.0045197 
  0.0040655 
  0.0033187 
  0.0055466 
  0.0058111 
  0.0001996 
 0.00036267 
  0.0013358 
   0.002503 
  0.0044364 
  0.0056448 
 0.00053824 
   0.003578 
  0.0058961 
  0.0039724 
  0.0051051 
 0.00071607 
  0.0051811 
   0.005277 
   0.003221 
  0.0015075 
  0.0053638 
  0.0058997 
  0.0049798 
  0.0038503 
  0.0029268 
  0.0043411 
  0.0026736 
  0.0054506 
  0.0018502 
  0.0048794 
  0.0008975 
  0.0016788 
  0.0022526 
  0.0034968 
  0.0059704 
  0.0047982 
  0.0057426 
  0.0055475 
  0.0058984 
  0.0046932 
  0.0010708 
  0.0042438 
  0.0058041 
   0.005987 
 0.00012915 
  0.0056358 
  0.0031226 
  0.0037605 
  0.0059903 
  0.0020465 
  0.0012471 
 0.00026503 
  0.0046168 
   0.002436 
  0.0057264 
  0.0041521 
  0.0028494 
     0.0059 
  0.0034003 
  0.0059925 
 0.00063439 
 0.00046001 
  0.0014253 
  0.0026095 
  0.0045306 
  0.0058182 
  0.0052781 
  0.0051939 
  0.0053686 
 0.00080243 
  0.0036764 
  0.0059818 
  0.0054579 
  0.0060815 
  0.0030251 
  0.0040597 
  0.0055533 
   0.005056 
  0.0044457 
  0.0016013 
  0.0033012 
  0.0060843 
  0.0059148 
   0.002783 
  0.0056441 
   0.003942 
  0.0049791 
 0.00098202 
  0.0017788 
  0.0048776 
  0.0043417 
  0.0022314 
  0.0057315 
  0.0035787 
  0.0061563 
  0.0011582 
  0.0060873 
  0.0059977 
  0.0047953 
  0.0061727 
  0.0058205 
 0.00016172 
 0.00021622 
  0.0019533 
 0.00036651 
  0.0038571 
  0.0032047 
  0.0061759 
   0.001337 
  0.0042663 
 0.00054907 
  0.0024173 
  0.0047045 
   0.005911 
  0.0029562 
 0.00071721 
  0.0060961 
  0.0034828 
  0.0061786 
  0.0053705 
  0.0054612 
  0.0015151 
  0.0021266 
  0.0052842 
  0.0055527 
  0.0041644 
 0.00088969 
  0.0027172 
  0.0046211 
   0.006004 
   0.001695 
  0.0056452 
  0.0025872 
  0.0037588 
  0.0057374 
  0.0051559 
  0.0010772 
  0.0062674 
  0.0031132 
  0.0045244 
  0.0061853 
   0.005047 
  0.0058277 
  0.0023066 
  0.0060952 
  0.0033852 
  0.0062706 
  0.0049602 
  0.0028809 
  0.0040405 
  0.0018678 
   0.001258 
  0.0059169 
  0.0048723 
  0.0036648 
  0.0044417 
  0.0063425 
  0.0062741 
  0.0061873 
  0.0014385 
  0.0060068 
  0.0063587 
  0.0020417 
  0.0047918 
   0.004343 
   0.003293 
  0.0063622 
  0.0039416 
  0.0060983 
   0.002473 
  0.0030476 
  0.0016282 
  0.0055552 
  0.0054656 
  0.0056467 
  0.0027597 
  0.0062804 
  0.0053759 
  0.0035683 
   0.005739 
  0.0063655 
  0.0047067 
   0.005831 
  0.0022024 
  0.0042437 
  0.0052177 
    0.00619 
  0.0059223 
  0.0017994 
  0.0038487 
  0.0046106 
  0.0032186 
  0.0051408 
  0.0064538 
  0.0060129 
  0.0063707 
  0.0050519 
  0.0062819 
  0.0023615 
  0.0034729 
  0.0064573 
  0.0061031 
  0.0041597 
  0.0019767 
  0.0026517 
  0.0049707 
  0.0045254 
  0.0029485 
  0.0037499 
  0.0061939 
   0.006461 
   0.006374 
  0.0065291 
  0.0065451 
  0.0048877 
  0.0054031 
  0.0044242 
  0.0021471 
  0.0056503 
  0.0057411 
  0.0055633 
  0.0058331 
  0.0065489 
  0.0062854 
  0.0040267 
  0.0033844 
  0.0047853 
  0.0059252 
  0.0025323 
  0.0064658 
   0.005317 
  0.0060169 
  0.0036538 
  0.0065526 
  0.0032582 
  0.0063771 
  0.0052367 
  0.0061081 
  0.0043428 
  0.0023167 
  0.0028324 
  0.0039333 
  0.0047006 
  0.0061992 
  0.0066406 
  0.0051512 
  0.0065569 
  0.0031294 
  0.0064688 
  0.0062901 
  0.0046061 
  0.0035587 
  0.0066444 
  0.0042439 
  0.0050571 
  0.0024865 
  0.0038382 
  0.0063812 
  0.0065606 
  0.0066481 
  0.0067161 
  0.0049671 
   0.005835 
  0.0057434 
  0.0059272 
  0.0056516 
  0.0060194 
  0.0067318 
  0.0030142 
  0.0045191 
  0.0055596 
  0.0061116 
  0.0064727 
  0.0048681 
  0.0034441 
  0.0041557 
  0.0067362 
  0.0054095 
  0.0062033 
  0.0027061 
  0.0066524 
  0.0037407 
  0.0053271 
  0.0067401 
  0.0062947 
   0.004427 
  0.0065643 
  0.0047887 
  0.0063861 
  0.0040602 
  0.0052381 
  0.0033431 
  0.0067439 
  0.0068281 
  0.0066561 
   0.002883 
  0.0064773 
   0.004696 
  0.0051502 
  0.0036411 
   0.006832 
  0.0043393 
  0.0050497 
  0.0031919 
  0.0065687 
  0.0059287 
  0.0060213 
   0.005836 
  0.0061138 
  0.0067478 
  0.0039738 
  0.0057428 
  0.0062062 
  0.0068357 
  0.0069037 
  0.0056509 
  0.0062984 
   0.004608 
  0.0042455 
  0.0069195 
  0.0066603 
   0.005504 
  0.0030495 
  0.0049537 
  0.0063903 
  0.0069242 
  0.0068397 
   0.005422 
  0.0064819 
  0.0045173 
  0.0038797 
  0.0069278 
   0.006752 
  0.0035492 
  0.0065735 
  0.0053438 
  0.0048853 
  0.0041571 
  0.0032393 
  0.0069316 
  0.0070173 
   0.006665 
  0.0068437 
  0.0052296 
  0.0047904 
  0.0051306 
  0.0044287 
  0.0061151 
    0.00702 
  0.0060218 
   0.006208 
  0.0059282 
  0.0063007 
  0.0037901 
  0.0067565 
  0.0058348 
  0.0063932 
   0.004065 
  0.0069355 
  0.0057418 
  0.0064857 
  0.0070237 
  0.0070932 
  0.0046993 
  0.0034319 
  0.0068482 
  0.0056439 
   0.004337 
  0.0065777 
  0.0071133 
   0.007112 
  0.0050732 
  0.0055532 
  0.0066695 
  0.0070277 
  0.0037056 
  0.0069399 
   0.004609 
  0.0039747 
  0.0071161 
  0.0054608 
  0.0067613 
  0.0049751 
  0.0042476 
  0.0035886 
  0.0053651 
   0.006853 
  0.0071198 
  0.0070318 
  0.0062085 
   0.006302 
   0.007203 
  0.0061149 
  0.0063951 
  0.0048822 
  0.0052483 
  0.0060215 
  0.0064881 
   0.004524 
  0.0072084 
  0.0059284 
  0.0065808 
  0.0069446 
  0.0038902 
   0.005835 
  0.0066733 
  0.0041548 
  0.0071238 
  0.0072122 
   0.005739 
  0.0067655 
  0.0072858 
  0.0047947 
  0.0070365 
  0.0037857 
  0.0044298 
  0.0056456 
  0.0068575 
  0.0073006 
  0.0051995 
  0.0072162 
   0.007326 
  0.0071284 
  0.0055525 
  0.0047071 
  0.0069496 
  0.0073049 
  0.0040718 
  0.0043403 
  0.0063956 
  0.0063019 
  0.0064893 
  0.0054605 
  0.0070414 
  0.0062082 
  0.0065827 
  0.0073086 
  0.0072204 
  0.0039721 
  0.0061146 
  0.0066758 
  0.0073942 
  0.0049731 
  0.0060209 
  0.0067687 
  0.0053748 
  0.0051559 
   0.004612 
  0.0073976 
  0.0071332 
  0.0059267 
  0.0068615 
  0.0042534 
  0.0073126 
  0.0058321 
  0.0069538 
  0.0074012 
  0.0048902 
  0.0072253 
  0.0074724 
  0.0057385 
   0.007046 
   0.004522 
  0.0041553 
  0.0074908 
  0.0074052 
    0.00752 
  0.0056458 
  0.0073173 
  0.0071383 
  0.0047941 
  0.0074943 
  0.0064892 
  0.0065831 
  0.0063952 
   0.006677 
  0.0063011 
  0.0067706 
  0.0054034 
   0.005167 
  0.0055562 
  0.0072303 
  0.0062072 
  0.0068639 
  0.0044399 
  0.0074095 
  0.0074979 
   0.006113 
   0.006957 
  0.0075843 
  0.0050711 
  0.0047111 
  0.0073222 
  0.0060187 
  0.0043321 
    0.00705 
  0.0075874 
  0.0059247 
  0.0071426 
  0.0075019 
  0.0075908 
  0.0046232 
  0.0074145 
  0.0049791 
  0.0076623 
  0.0058312 
   0.007235 
   0.005352 
  0.0076807 
  0.0075947 
  0.0057381 
  0.0066768 
  0.0073274 
  0.0065826 
   0.006771 
  0.0075067 
  0.0077098 
  0.0064882 
  0.0068651 
  0.0048931 
  0.0045345 
    0.00526 
   0.006394 
  0.0069589 
  0.0076842 
  0.0062997 
  0.0070525 
  0.0056417 
  0.0074196 
  0.0062053 
  0.0071458 
   0.007599 
  0.0076876 
   0.005161 
   0.007774 
  0.0048015 
  0.0061112 
   0.007239 
  0.0055393 
  0.0075117 
  0.0077775 
  0.0060172 
  0.0073318 
  0.0076917 
  0.0047031 
  0.0077808 
  0.0076041 
  0.0050748 
  0.0059234 
  0.0074244 
  0.0054378 
  0.0078524 
  0.0067704 
  0.0068649 
  0.0066757 
  0.0069593 
  0.0065813 
  0.0058291 
  0.0070537 
  0.0078707 
   0.007517 
  0.0077847 
  0.0076965 
  0.0064868 
  0.0071477 