# vtk DataFile Version 2.0
Steady-state stabilized finite element formulation for the 2D incopmpressible Navier Stokes equations
ASCII

DATASET UNSTRUCTURED_GRID
POINTS 20615 double
    2.2        0.41           0 
   2.19        0.41           0 
    2.2         0.4           0 
 2.1858     0.40112           0 
   2.19     0.39268           0 
    2.2        0.39           0 
   2.18        0.41           0 
   2.18     0.39268           0 
  2.175     0.40134           0 
    2.2        0.38           0 
   2.17        0.41           0 
 2.1858     0.38335           0 
   2.17     0.39268           0 
  2.165     0.40134           0 
  2.175     0.38402           0 
 2.1903     0.37519           0 
    2.2        0.37           0 
   2.16        0.41           0 
   2.18     0.37536           0 
   2.16     0.39268           0 
  2.165     0.38402           0 
 2.1858     0.36725           0 
  2.155     0.40134           0 
   2.17     0.37536           0 
   2.15        0.41           0 
    2.2        0.36           0 
  2.175      0.3667           0 
  2.155     0.38402           0 
   2.15     0.39268           0 
   2.16     0.37536           0 
   2.19     0.35804           0 
  2.145     0.40134           0 
  2.165      0.3667           0 
   2.18     0.35804           0 
    2.2        0.35           0 
   2.14        0.41           0 
   2.17     0.35804           0 
  2.145     0.38402           0 
   2.15     0.37536           0 
   2.14     0.39268           0 
  2.155      0.3667           0 
  2.185     0.34938           0 
  2.135     0.40134           0 
  2.175     0.34938           0 
   2.16     0.35804           0 
   2.14     0.37536           0 
   2.13        0.41           0 
    2.2        0.34           0 
  2.135     0.38402           0 
  2.145      0.3667           0 
  2.165     0.34938           0 
   2.19     0.34072           0 
   2.13     0.39268           0 
   2.15     0.35804           0 
   2.18     0.34072           0 
  2.125     0.40134           0 
  2.155     0.34938           0 
   2.17     0.34072           0 
   2.13     0.37536           0 
  2.135      0.3667           0 
  2.125     0.38402           0 
   2.14     0.35804           0 
 2.1858     0.33171           0 
   2.12        0.41           0 
    2.2        0.33           0 
   2.16     0.34072           0 
   2.12     0.39268           0 
  2.145     0.34938           0 
  2.175     0.33206           0 
  2.115     0.40134           0 
   2.15     0.34072           0 
  2.165     0.33206           0 
  2.125      0.3667           0 
   2.12     0.37536           0 
   2.13     0.35804           0 
   2.19      0.3234           0 
  2.115     0.38402           0 
  2.135     0.34938           0 
   2.18      0.3234           0 
   2.11        0.41           0 
    2.2        0.32           0 
  2.155     0.33206           0 
   2.11     0.39268           0 
   2.14     0.34072           0 
   2.17      0.3234           0 
  2.105     0.40134           0 
  2.115      0.3667           0 
   2.12     0.35804           0 
  2.145     0.33206           0 
   2.16      0.3234           0 
 2.1879     0.31481           0 
   2.11     0.37536           0 
  2.125     0.34938           0 
  2.105     0.38402           0 
   2.13     0.34072           0 
  2.175     0.31474           0 
    2.2        0.31           0 
    2.1        0.41           0 
   2.15      0.3234           0 
    2.1     0.39268           0 
  2.135     0.33206           0 
  2.165     0.31474           0 
   2.11     0.35804           0 
  2.105      0.3667           0 
  2.115     0.34938           0 
 2.1912     0.30542           0 
  2.095     0.40134           0 
   2.14      0.3234           0 
  2.155     0.31474           0 
    2.1     0.37536           0 
   2.12     0.34072           0 
   2.18     0.30608           0 
  2.095     0.38402           0 
  2.125     0.33206           0 
   2.17     0.30608           0 
   2.09        0.41           0 
    2.2         0.3           0 
  2.145     0.31474           0 
   2.09     0.39268           0 
   2.13      0.3234           0 
   2.16     0.30608           0 
    2.1     0.35804           0 
  2.105     0.34938           0 
  2.095      0.3667           0 
   2.11     0.34072           0 
 2.1881     0.29619           0 
  2.085     0.40134           0 
   2.09     0.37536           0 
  2.115     0.33206           0 
  2.135     0.31474           0 
   2.15     0.30608           0 
  2.175     0.29742           0 
  2.085     0.38402           0 
   2.12      0.3234           0 
  2.165     0.29742           0 
   2.08        0.41           0 
    2.2        0.29           0 
   2.14     0.30608           0 
   2.08     0.39268           0 
  2.095     0.34938           0 
  2.125     0.31474           0 
  2.155     0.29742           0 
   2.09     0.35804           0 
    2.1     0.34072           0 
  2.085      0.3667           0 
   2.18     0.28876           0 
  2.105     0.33206           0 
   2.08     0.37536           0 
   2.17     0.28876           0 
   2.11      0.3234           0 
  2.075     0.40134           0 
 2.1913       0.285           0 
   2.13     0.30608           0 
  2.145     0.29742           0 
  2.075     0.38402           0 
   2.16     0.28876           0 
  2.115     0.31474           0 
   2.07        0.41           0 
    2.2        0.28           0 
  2.085     0.34938           0 
   2.09     0.34072           0 
  2.135     0.29742           0 
   2.08     0.35804           0 
  2.095     0.33206           0 
   2.07     0.39268           0 
   2.12     0.30608           0 
   2.15     0.28876           0 
 2.1833     0.27934           0 
  2.075      0.3667           0 
  2.175      0.2801           0 
    2.1      0.3234           0 
   2.07     0.37536           0 
  2.165      0.2801           0 
  2.105     0.31474           0 
  2.065     0.40134           0 
  2.125     0.29742           0 
   2.14     0.28876           0 
  2.065     0.38402           0 
  2.155      0.2801           0 
   2.11     0.30608           0 
   2.08     0.34072           0 
  2.075     0.34938           0 
  2.085     0.33206           0 
   2.19     0.27144           0 
   2.06        0.41           0 
    2.2        0.27           0 
   2.07     0.35804           0 
   2.13     0.28876           0 
   2.09      0.3234           0 
   2.18     0.27144           0 
   2.06     0.39268           0 
  2.115     0.29742           0 
  2.145      0.2801           0 
  2.065      0.3667           0 
   2.17     0.27144           0 
  2.095     0.31474           0 
   2.06     0.37536           0 
   2.16     0.27144           0 
    2.1     0.30608           0 
  2.055     0.40134           0 
   2.12     0.28876           0 
  2.135      0.2801           0 
  2.055     0.38402           0 
   2.07     0.34072           0 
  2.075     0.33206           0 
  2.105     0.29742           0 
   2.15     0.27144           0 
  2.065     0.34938           0 
   2.08      0.3234           0 
 2.1858     0.26231           0 
   2.06     0.35804           0 
  2.085     0.31474           0 
  2.175     0.26278           0 
   2.05        0.41           0 
    2.2        0.26           0 
  2.125      0.2801           0 
   2.05     0.39268           0 
   2.11     0.28876           0 
   2.14     0.27144           0 
   2.09     0.30608           0 
  2.055      0.3667           0 
  2.165     0.26278           0 
  2.095     0.29742           0 
   2.05     0.37536           0 
  2.155     0.26278           0 
   2.13     0.27144           0 
  2.115      0.2801           0 
  2.045     0.40134           0 
  2.065     0.33206           0 
 2.1907     0.25435           0 
   2.07      0.3234           0 
   2.06     0.34072           0 
    2.1     0.28876           0 
  2.045     0.38402           0 
  2.075     0.31474           0 
  2.055     0.34938           0 
  2.145     0.26278           0 
   2.18     0.25412           0 
   2.08     0.30608           0 
   2.05     0.35804           0 
   2.17     0.25412           0 
   2.12     0.27144           0 
   2.04        0.41           0 
    2.2        0.25           0 
  2.135     0.26278           0 
  2.085     0.29742           0 
  2.105      0.2801           0 
   2.04     0.39268           0 
  2.045      0.3667           0 
   2.16     0.25412           0 
   2.09     0.28876           0 
   2.04     0.37536           0 
   2.15     0.25412           0 
   2.06      0.3234           0 
  2.055     0.33206           0 
 2.1879     0.24533           0 
  2.125     0.26278           0 
   2.11     0.27144           0 
  2.035     0.40134           0 
  2.065     0.31474           0 
   2.05     0.34072           0 
   2.07     0.30608           0 
  2.045     0.34938           0 
  2.175     0.24546           0 
   2.14     0.25412           0 
  2.095      0.2801           0 
  2.035     0.38402           0 
  2.075     0.29742           0 
   2.04     0.35804           0 
  2.165     0.24546           0 
  2.115     0.26278           0 
   2.03        0.41           0 
    2.2        0.24           0 
   2.08     0.28876           0 
  2.035      0.3667           0 
  2.155     0.24546           0 
   2.13     0.25412           0 
    2.1     0.27144           0 
   2.03     0.39268           0 
   2.05      0.3234           0 
  2.145     0.24546           0 
  2.085      0.2801           0 
   2.03     0.37536           0 
  2.055     0.31474           0 
  2.045     0.33206           0 
   2.19     0.23679           0 
   2.06     0.30608           0 
   2.04     0.34072           0 
   2.18     0.23679           0 
   2.12     0.25412           0 
  2.105     0.26278           0 
  2.025     0.40134           0 
  2.065     0.29742           0 
  2.035     0.34938           0 
   2.17     0.23679           0 
  2.135     0.24546           0 
   2.09     0.27144           0 
[...]
POINT_DATA 20615
SCALARS pressure double
LOOKUP_TABLE default
 1.2486e-05 
 5.3529e-05 
 1.3139e-05 
 6.9618e-05 
 5.3208e-05 
 1.2925e-05 
 9.2004e-05 
 9.1607e-05 
 0.00011103 
 1.3915e-05 
 0.00013024 
 6.8884e-05 
  0.0001299 
 0.00014929 
 0.00011032 
 5.1175e-05 
 1.4293e-05 
 0.00016853 
 9.0594e-05 
 0.00016825 
 0.00014868 
 6.7713e-05 
 0.00018765 
 0.00012894 
 0.00020693 
 1.5423e-05 
 0.00010904 
 0.00018715 
  0.0002067 
 0.00016744 
  5.114e-05 
 0.00022612 
 0.00014755 
 8.8958e-05 
 1.5913e-05 
 0.00024543 
 0.00012746 
 0.00022571 
 0.00020604 
 0.00024524 
 0.00018621 
 6.8661e-05 
 0.00026466 
 0.00010714 
  0.0001662 
 0.00024471 
 0.00028399 
 1.7189e-05 
 0.00026433 
 0.00022495 
 0.00014598 
 4.9077e-05 
 0.00028384 
 0.00020503 
 8.6696e-05 
 0.00030325 
 0.00018494 
 0.00012557 
 0.00028342 
 0.00026373 
   0.000303 
 0.00024391 
 6.2893e-05 
 0.00032258 
 1.5975e-05 
 0.00016466 
 0.00032247 
 0.00022394 
 0.00010512 
 0.00034186 
  0.0002038 
 0.00014425 
 0.00030254 
 0.00032216 
 0.00028281 
  4.631e-05 
 0.00034168 
 0.00026295 
 8.4989e-05 
 0.00036119 
 1.9602e-05 
 0.00018352 
 0.00036111 
 0.00024295 
 0.00012371 
 0.00038047 
 0.00034135 
 0.00032171 
 0.00022282 
 0.00016306 
 5.2489e-05 
 0.00036089 
 0.00030196 
 0.00038035 
 0.00028209 
 0.00010288 
 1.9342e-05 
 0.00039979 
 0.00020253 
 0.00039974 
 0.00026211 
 0.00014239 
 0.00036058 
 0.00038013 
 0.00034094 
 4.1289e-05 
 0.00041907 
 0.00024199 
 0.00018208 
  0.0003996 
 0.00032121 
 8.2288e-05 
 0.00041899 
 0.00030136 
 0.00012146 
 0.00043836 
  2.321e-05 
 0.00022174 
 0.00043833 
 0.00028141 
 0.00016147 
 0.00039943 
 0.00037989 
 0.00041888 
 0.00036028 
 5.0081e-05 
 0.00045762 
 0.00043827 
 0.00034057 
 0.00026134 
 0.00020136 
 0.00010027 
  0.0004576 
 0.00032077 
 0.00014082 
 0.00047688 
 2.3214e-05 
 0.00024116 
 0.00047688 
 0.00041879 
 0.00030087 
 0.00018091 
 0.00043822 
  0.0003993 
 0.00045758 
 7.8859e-05 
 0.00037972 
 0.00047688 
 0.00012046 
 0.00036007 
 0.00049612 
 4.0699e-05 
 0.00028088 
 0.00022089 
 0.00049614 
 0.00016047 
 0.00034034 
 0.00051534 
 2.1947e-05 
 0.00045762 
 0.00043825 
 0.00026079 
 0.00047694 
 0.00041881 
 0.00051536 
 0.00032052 
 0.00020054 
 6.4168e-05 
 0.00049621 
 0.00010183 
  0.0003993 
 0.00051543 
 0.00014009 
 0.00037973 
 0.00053455 
 0.00030061 
 0.00024061 
 0.00053461 
 0.00018008 
 0.00036007 
 0.00047713 
 0.00049638 
 0.00045782 
 4.1193e-05 
 0.00055372 
  2.642e-05 
 0.00051559 
 0.00028062 
 0.00043845 
 7.7887e-05 
 0.00055376 
 0.00034035 
 0.00022032 
 0.00053476 
 0.00011875 
 0.00041903 
 0.00055388 
 0.00015933 
 0.00039954 
 0.00057288 
 0.00032054 
 0.00026053 
 0.00057298 
 0.00051591 
 0.00049674 
 0.00037999 
 0.00019987 
 0.00053505 
 0.00047751 
 5.3061e-05 
 0.00055415 
 0.00045824 
 9.7267e-05 
   0.000592 
 1.9279e-05 
 0.00030066 
 0.00059206 
 0.00036037 
 0.00024033 
 0.00043892 
 0.00057321 
 0.00013843 
 0.00041954 
 0.00059224 
 0.00017931 
 0.00028068 
 0.00034068 
 0.00061112 
 0.00053556 
 3.6197e-05 
 0.00051647 
  0.0005546 
  0.0004001 
 0.00061126 
 0.00049735 
 0.00057361 
 0.00022003 
 7.7416e-05 
 0.00047819 
  0.0005926 
 0.00011771 
 0.00032091 
 0.00063018 
 2.3238e-05 
 0.00026061 
 0.00045898 
  0.0003806 
 0.00063026 
 0.00061156 
 0.00015871 
 0.00043972 
 0.00063049 
 0.00019965 
 0.00055532 
 0.00057426 
  4.353e-05 
 0.00030107 
 0.00036103 
 0.00064925 
 0.00053635 
 0.00059318 
 0.00051735 
 0.00061207 
 9.7056e-05 
 0.00024046 
  0.0004204 
 0.00064942 
  0.0004983 
 0.00063093 
 0.00013812 
  0.0003414 
 0.00066824 
 2.3617e-05 
 0.00047922 
 0.00064978 
 0.00017921 
 0.00028115 
 0.00040103 
 0.00066833 
 0.00059406 
 0.00022024 
 0.00046009 
 0.00066862 
 0.00057524 
 0.00061286 
 3.7718e-05 
 0.00055639 
 0.00063163 
  7.748e-05 
 0.00032169 
  0.0003816 
 0.00068724 
 0.00053751 
 0.00065039 
 0.00011753 
 0.00026114 
  0.0004409 
 0.00068745 
 0.00066914 
  0.0005186 
 0.00015868 
 0.00036209 
 0.00070616 
 1.9429e-05 
 0.00019993 
 0.00049965 
 0.00068788 
 0.00030191 
 0.00070627 
 0.00042166 
 0.00063266 
 0.00061399 
 5.2764e-05 
 0.00065132 
  0.0005953 
 0.00024106 
 0.00048065 
 0.00070661 
 0.00066996 
 0.00057659 
  9.659e-05 
 0.00034252 
   0.000138 
 0.00040236 
  0.0007251 
 0.00068859 
 0.00055785 
 0.00028205 
  0.0004616 
 0.00072534 
 0.00017951 
 0.00053908 
 0.00070721 
 0.00022089 
   0.000383 
 0.00074395 
  2.635e-05 
 0.00052026 
 0.00072583 
 0.00065261 
 0.00032288 
 0.00044249 
 0.00074407 
 0.00067113 
 0.00063408 
 3.9741e-05 
 0.00068964 
 0.00061554 
 7.6013e-05 
 0.00011717 
 0.00070814 
 0.00059697 
 0.00026211 
  0.0005014 
 0.00074445 
 0.00015898 
 0.00057837 
 0.00072664 
 0.00036356 
 0.00076281 
 0.00042333 
 0.00030316 
 0.00048249 
 0.00076308 
 0.00020064 
 0.00055974 
 0.00074514 
 0.00069109 
 0.00067272 
  0.0002421 
 0.00054107 
 0.00070945 
 0.00076363 
 0.00065434 
 5.5941e-05 
 0.00040409 
 0.00078157 
   2.41e-05 
 0.00034405 
 0.00078171 
 0.00072781 
 0.00063595 
 0.00046351 
 9.6646e-05 
 0.00013849 
 0.00074617 
 0.00061753 
 0.00028337 
 0.00052234 
 0.00078214 
 0.00018037 
 0.00076453 
 0.00059908 
 0.00038477 
 0.00044447 
 0.00080036 
 0.00022204 
 0.00032446 
 0.00050356 
 0.00080065 
 0.00058059 
  0.0007829 
 0.00071121 
 4.0026e-05 
 0.00072942 
   0.000693 
 7.6842e-05 
 0.00074762 
 0.00067478 
 0.00026351 
 0.00056205 
 0.00080127 
  0.0001182 
 0.00042535 
 0.00081903 
 2.5449e-05 
 0.00076583 
 0.00065654 
 0.00036538 
  0.0004847 
 0.00081918 
 0.00016014 
 0.00078404 
 0.00063827 
 0.00030479 
 0.00054345 
 0.00081966 
 0.00020196 
 0.00061997 
 0.00080226 
 0.00040615 
 0.00046577 
 0.00083773 
 0.00024359 
 0.00060161 
 0.00082049 
  0.0003459 
 0.00052479 
 0.00074955 
 0.00083806 
 0.00073151 
 0.00076758 
 0.00071346 
 5.3073e-05 
 9.8466e-05 
 0.00078563 
  0.0006954 
 0.00014015 
 0.00028505 
 0.00080368 
 0.00058321 
 0.00083874 
 0.00067731 
 0.00044676 
 0.00085631 
 1.7277e-05 
 0.00038685 
 0.00050605 
 0.00085648 
 0.00018192 
 0.00082174 
 0.00065919 
 0.00032634 
 0.00056473 
   0.000857 
 0.00022365 
 0.00083981 
 0.00064103 
 0.00042765 
 0.00048722 
 0.00087492 
 0.00076985 
 3.7256e-05 
 0.00078771 
 0.00075198 
 7.9592e-05 
 0.00026525 
 0.00080558 
 0.00062281 
  0.0008579 
  0.0007341 
 0.00036747 
 0.00054618 
 0.00087528 
  0.0001203 
 0.00082346 
 0.00071619 
 0.00016188 
 0.00084135 
 0.00069826 
 0.00030669 
 0.00087601 
 0.00060452 
 0.00046829 
  0.0008934 
 1.7446e-05 
 0.00020365 
 0.00040844 
 0.00052753 
 0.00085926 
 0.00089358 
 0.00068029 
 0.00034798 
 0.00058615 
 0.00089414 
 0.00024536 
 0.00087718 
 0.00066226 
 5.4075e-05 
 0.00079033 
 0.00080801 
  0.0008257 
 0.00077263 
 9.9905e-05 
 0.00044925 
 0.00050878 
  0.0008434 
 0.00091191 
 0.00075492 
 0.00028695 
 0.00064416 
 0.00089513 
 0.00014164 
 0.00038912 
 0.00056769 
 0.00086111 
  0.0009123 
 0.00073717 
 0.00018352 
 0.00087884 
 0.00071939 
  0.0003284 
 0.00062598 
  0.0009131 
 0.00048992 
 0.00093028 
 2.4885e-05 
 0.00022537 
 0.00089658 
 0.00070155 
  0.0004301 
 0.00054912 
 0.00093048 
 0.00036969 
  0.0006077 
 0.00093109 
  0.0008285 
  4.191e-05 
  0.0002671 
 0.00091435 
 0.00068364 
 0.00081099 
   0.000846 
 7.9387e-05 
 0.00086351 
 0.00079347 
   0.000121 
 0.00088103 
 0.00077592 
 0.00047093 
 0.00053043 
  0.0009487 
 0.00030869 
 0.00066565 
 0.00093215 
 0.00016317 
 0.00089857 
 0.00075833 
 0.00041083 
 0.00058931 
 0.00094912 
 0.00020523 
 0.00091613 
 0.00074068 
 0.00035014 
 0.00064756 
 0.00094998 
 0.00024713 
 0.00093371 
 0.00072297 
 0.00051162 
 0.00096696 
 2.3766e-05 
 0.00045182 
  0.0005708 
 0.00096718 
 0.00086649 
 0.00084918 
 5.9251e-05 
 0.00088381 
 0.00083185 
 0.00010056 
 0.00028887 
 0.00039142 
 0.00062935 
 0.00070516 
 0.00090113 
 0.00095132 
 0.00096783 
 0.00081449 
 0.00014275 
 0.00091847 
  0.0007971 
 0.00018499 
 0.00049266 
 0.00055215 
 0.00093583 
 0.00098527 
 0.00077965 
 0.00033046 
 0.00068726 
 0.00096896 
 0.00043257 
 0.00061101 
 0.00098572 
 0.00022705 
 0.00095321 
 0.00076213 
 0.00037189 
 0.00066923 
 0.00098664 
 0.00026893 
 0.00074452 
 0.00097063 
 0.00088718 
 4.3263e-05 
 0.00053335 
  0.0010034 
  2.593e-05 
  0.0009043 
 0.00087004 
 8.0684e-05 
 0.00047356 
 0.00059253 
 0.00092142 
  0.0010036 
 0.00085289 
  0.0001224 
 0.00093855 
 0.00083569 
 0.00031065 
  0.0007268 
 0.00098807 
 0.00041317 
 0.00065107 
  0.0010043 
 0.00016469 
  0.0009557 
 0.00081844 
 0.00020688 
 0.00097288 
 0.00080112 
 0.00035222 
  0.0005144 
  0.0005739 
 0.00070896 
  0.0010056 
  0.0010216 
  0.0004543 
 0.00063276 
  0.0010221 
 0.00024888 
 0.00078371 
 0.00099008 
 0.00039363 
 0.00069098 
  0.0010231 
 0.00092498 
 0.00090805 
  0.0009419 
  0.0008911 
 0.00029073 
 0.00076618 
  0.0010073 
 5.7844e-05 
 0.00010237 
 0.00095882 
 0.00087411 
  0.0005551 
  0.0010396 
  2.076e-05 
 0.00049529 
  0.0006143 
  0.0010399 
 0.00014448 
 0.00097576 
 0.00085706 
 0.00033241 
 0.00074853 
  0.0010246 
 0.00018666 
  0.0004349 
 0.00067285 
 0.00099272 
  0.0010406 
 0.00083994 
 0.00022875 
 0.00082272 
  0.0010097 
 0.00037394 
 0.00073073 
  0.0010419 
 0.00053614 
 0.00059566 
  0.0010577 
 0.00027068 
 0.00047602 
 0.00065454 
 0.00080539 
  0.0010267 
  0.0010582 
 0.00094586 
 4.2935e-05 
 0.00096258 
 0.00092912 
  8.348e-05 
  0.0009793 
 0.00091233 
 0.00041533 
 0.00071277 
  0.0010593 
 0.00012441 
 0.00031247 
 0.00078793 
 0.00099602 
  0.0010438 
 0.00089549 
 0.00016643 
 0.00057684 
  0.0010128 
  0.0010756 
 2.3591e-05 
 0.00087858 
   0.000517 
 0.00063606 
  0.0010759 
 0.00020853 
 0.00035411 
 0.00077032 
 0.00086157 
  0.0010295 
  0.0010609 
 0.00045658 
 0.00069464 
  0.0010767 
 0.00025054 
 0.00084444 
  0.0010463 
 0.00039562 
 0.00075254 
   0.001078 
 0.00055784 
  0.0006174 
  0.0010936 
 4.9844e-05 
 0.00029241 
 0.00082717 
  0.0010631 
 0.00098347 
 0.00096694 
 0.00049769 
 0.00067632 
  0.0010941 
 0.00099998 
 0.00095037 
 0.00010412 
  0.0010165 
 0.00093374 
 0.00014614 
   0.001033 
 0.00091704 
 0.00043698 
 0.00073458 
  0.0010952 
 0.00033415 
 0.00080975 
    0.00108 
 0.00018823 
 0.00090023 
  0.0010495 
 0.00059854 
  0.0011113 
 2.3977e-05 
 0.00053866 
 0.00065781 
  0.0011116 
 0.00023028 
 0.00088331 
  0.0010661 
 0.00037575 
 0.00079216 
  0.0010969 
  0.0004782 
 0.00071643 
  0.0011125 
 0.00027223 
 0.00086624 
  0.0010827 
  0.0010046 
 0.00041721 
 0.00077437 
  0.0011139 
  0.0010209 
  0.0009882 
 4.1807e-05 
 8.4434e-05 
 0.00057948 
 0.00063909 
  0.0010372 
  0.0011292 
 0.00097179 
 0.00031405 
 0.00084901 
  0.0010993 
 0.00012571 
  0.0010534 
  0.0009553 
 0.00051929 
 0.00069807 
  0.0011297 
  0.0001678 
  0.0010697 
 0.00093871 
 0.00035574 
 0.00045854 
 0.00075639 
  0.0008316 
   0.001116 
  0.0011309 
 0.00020991 
 0.00092199 
  0.0010861 
 0.00062017 
  0.0011468 
  2.194e-05 
 0.00025193 
 0.00056024 
  0.0006795 
 0.00090513 
  0.0011471 
  0.0011024 
  0.0003973 
   0.000814 
  0.0011327 
 0.00049974 
 0.00073819 
   0.001148 
 0.00029383 
  0.0008881 
  0.0011188 
 5.9729e-05 
   0.001042 
  0.0010258 
   0.001058 
  0.0010096 
 0.00010507 
  0.0010741 
 0.00099337 
 0.00043872 
 0.00079619 
  0.0011495 
 0.00014725 
  0.0003356 
 0.00060105 
 0.00066072 
 0.00087088 
  0.0010902 
  0.0011645 
  0.0011352 
   0.000977 
  0.0005408 
 0.00071977 
  0.0011651 
 0.00018941 
  0.0011062 
 0.00096049 
 0.00037724 
 0.00085346 
  0.0011517 
 0.00023151 
 0.00048002 
 0.00077815 
 0.00094384 
  0.0011223 
  0.0011663 
 0.00027348 
 0.00064173 
 0.00092701 
  0.0011385 
   0.001182 
 2.7885e-05 
 0.00058173 
 0.00070113 
  0.0011823 
 0.00041875 
 0.00083583 
  0.0011682 
  0.0010632 
 4.6395e-05 
 0.00052118 
 0.00075989 
  0.0010473 
  0.0010791 
  0.0011832 
 0.00031533 
 0.00090999 
  0.0011546 
 8.5077e-05 
   0.001095 
  0.0010312 
 0.00012684 
  0.0010151 
  0.0011108 
 0.00016886 
 0.00046013 
 0.00081796 
  0.0009988 
  0.0011267 
  0.0011848 
 0.00035704 
 0.00089276 
  0.0011709 
 0.00062252 
 0.00068226 
  0.0011996 
   0.000211 
 0.00098236 
  0.0011425 
 0.00056222 
 0.00074139 
  0.0012002 
 0.00025303 
 0.00096574 
  0.0011584 
 0.00039863 
  0.0008753 
  0.0011871 
 0.00050139 
 0.00079985 
  0.0012015 
 0.00029494 
 0.00094893 
  0.0011743 
 0.00066318 
  0.0012169 
  2.546e-05 
 7.0634e-05 
 0.00060312 
 0.00072266 
  0.0010847 
  0.0011004 
  0.0012172 
  0.0004401 
 0.00085761 
  0.0010689 
  0.0011161 
  0.0012035 
 0.00010865 
   0.001053 
  0.0011317 
 0.00033673 
 0.00054252 
  0.0007815 
 0.00093189 
  0.0011902 
  0.0012182 
 0.00014857 
  0.0010369 
  0.0011473 
 0.00019051 
  0.0010207 
  0.0011629 
 0.00048144 
 0.00083966 
  0.0012199 
 0.00037839 
 0.00091461 
  0.0012062 
 0.00023252 
 0.00064389 
  0.0007037 
  0.0010043 
  0.0011785 
  0.0012343 
 4.4084e-05 
 0.00058353 
 0.00076291 
   0.001235 
 0.00027447 
 0.00098768 
  0.0011941 
 0.00041993 
 0.00089709 
  0.0012223 
 0.00052266 
 0.00082146 
  0.0012363 
 0.00031631 
 0.00097084 
  0.0011219 
  0.0012098 
  0.0011063 
  0.0011374 
 8.4469e-05 
  0.0010906 
  0.0011528 
 0.00068453 
  0.0012515 
 2.7758e-05 
 0.00012833 
  0.0006244 
 0.00074409 
  0.0010748 
  0.0011682 
  0.0012518 
 0.00046135 
 0.00087931 
  0.0012384 
 0.00017018 
 0.00035803 
 0.00095375 
  0.0010588 
  0.0011835 
  0.0012255 
 0.00056376 
 0.00080302 
  0.0012528 
 0.00021198 
  0.0010426 
  0.0011989 
 0.00050265 
 0.00086127 
  0.0012546 
 0.00039964 
 0.00093641 
  0.0012413 
 0.00025391 
  0.0010262 
  0.0012142 
 0.00066515 
 0.00072503 
  0.0012687 
 4.3761e-05 
 0.00060473 
 0.00078432 
  0.0012694 
  0.0002958 
  0.0010096 
  0.0012296 
 0.00044113 
  0.0009188 
  0.0012572 
 0.00011067 
 0.00054383 
 0.00084297 
  0.0011435 
  0.0011589 
  0.0012709 
  0.0011281 
  0.0011741 
 0.00033758 
 0.00099271 
  0.0011125 
  0.0011893 
  0.0012451 
 0.00015141 
  0.0010967 
  0.0012044 
 0.00070576 
  0.0012858 
 2.7445e-05 
  0.0004825 
 0.00064557 
 0.00076539 
 0.00090092 
  0.0012861 
  0.0012731 
 7.4593e-05 
 0.00019154 
  0.0010808 
  0.0012195 
 0.00037925 
 0.00097556 
  0.0012606 
 0.00058489 
 0.00082442 
  0.0012872 
  0.0002333 
  0.0010646 
  0.0012346 
 0.00027521 
  0.0004208 
 0.00052376 
 0.00088278 
 0.00095813 
  0.0010482 
  0.0012497 
  0.0012761 
   0.001289 
 0.00068629 
 0.00074624 
  0.0013029 
 4.4282e-05 
 0.00031704 
 0.00062582 
 0.00080561 
  0.0010315 
  0.0012648 
  0.0013036 
  0.0011805 
  0.0011653 
  0.0011956 
 0.00046224 
 0.00094041 
    0.00115 
  0.0012106 
  0.0012917 
  0.0001281 
  0.0005649 
 0.00086436 
  0.0011345 
  0.0012255 
  0.0013051 
 0.00035877 
  0.0010145 
    0.00128 
 0.00017055 
  0.0011187 
  0.0012403 
 0.00021255 
 0.00072687 
  0.0011028 
  0.0012552 
  0.0013197 
 2.8079e-05 
 0.00050357 
 0.00092242 
  0.0013074 
 0.00066663 
 0.00078657 
  0.0013201 
  7.538e-05 
 0.00040038 
 0.00099728 
  0.0012953 
 0.00025455 
  0.0010866 
    0.00127 
 0.00060592 
 0.00084569 
  0.0013212 
 0.00029644 
  0.0010701 
  0.0012848 
 0.00044188 
 0.00097973 
  0.0013106 
 0.00054478 
 0.00090415 
  0.0013232 
 0.00070731 
 0.00076732 
  0.0012023 
  0.0012173 
  0.0013367 
 4.4746e-05 
  0.0011872 
  0.0012321 
 0.00033822 
  0.0010533 
  0.0012997 
 0.00010829 
 0.00064681 
 0.00082677 
   0.001172 
  0.0012468 
  0.0013374 
 0.00014955 
 0.00048328 
  0.0009619 
  0.0011565 
  0.0012614 
   0.001326 
 0.00058588 
 0.00088561 
   0.001339 
  0.0001918 
 0.00037989 
  0.0010363 
  0.0011407 
   0.001276 
  0.0013147 
 0.00023388 
  0.0011248 
  0.0012906 
 0.00074786 
  0.0013533 
 2.8696e-05 
 0.00052456 
 0.00094378 
  0.0013414 
 0.00068758 
 0.00080763 
  0.0013537 
 7.5929e-05 
 0.00042145 
  0.0010189 
  0.0013297 
  0.0002758 
  0.0011085 
  0.0013051 
 0.00062685 
 0.00086682 
  0.0013549 
 0.00031762 
  0.0010919 
  0.0013197 
  0.0004629 
  0.0010012 
  0.0013447 
 0.00056573 
 0.00092538 
  0.0012391 
  0.0013569 
  0.0012242 
  0.0012537 
  0.0012092 
  0.0012683 
 0.00012764 
   0.001194 
  0.0012827 
 0.00035933 
 0.00072823 
 0.00078828 
   0.001075 
  0.0013343 
  0.0013701 
 4.4836e-05 
 0.00017168 
 0.00066771 
  0.0008478 
  0.0011785 
  0.0012971 
  0.0013709 
 0.00050425 
 0.00098325 
  0.0013599 
 0.00021346 
  0.0011627 
  0.0013114 
 0.00040095 
 0.00060678 
 0.00090672 
  0.0010579 
   0.001349 
  0.0013726 
 0.00025516 
  0.0011467 
  0.0013257 
 0.00054549 
 0.00076874 
   0.000965 
  0.0013866 
 2.9475e-05 
  0.0013751 
 0.00044246 
  0.0010404 
  0.0013638 
 0.00029698 
 0.00070844 
 0.00082856 
  0.0011303 
    0.00134 
   0.001387 
 7.6132e-05 
 0.00064772 
 0.00088782 
  0.0013883 
 0.00033874 
  0.0011136 
   0.001261 
  0.0012756 
  0.0013543 
  0.0012463 
    0.00129 
 0.00015367 
 0.00048387 
  0.0010226 
  0.0012313 
  0.0013042 
  0.0013786 
 0.00058661 
 0.00094647 
  0.0013904 
   0.001216 
  0.0013184 
 0.00038041 
  0.0010966 
  0.0013686 
 0.00019468 
 0.00074905 
 0.00080913 
  0.0012005 
  0.0013324 
 4.5258e-05 
  0.0014032 
 0.00068853 
 0.00086869 
   0.001404 
 0.00011121 
 0.00023455 
 0.00052518 
  0.0010044 
  0.0011847 
  0.0013465 
  0.0013934 
 0.00042198 
  0.0010793 
   0.001383 
 0.00062763 
 0.00092769 
  0.0014058 
 0.00027633 
  0.0011685 
  0.0013605 
 0.00031811 
 0.00056638 
 0.00098606 
  0.0011521 
  0.0013745 
  0.0014084 
 0.00046345 
 0.00078953 
  0.0010617 
  0.0013975 
  0.0014195 
 3.0697e-05 
 0.00072923 
 0.00084937 
  0.0014199 
 7.6806e-05 
  0.0012975 
   0.001283 
  0.0013118 
 0.00066852 
 0.00090868 
  0.0012683 
  0.0013259 
  0.0014212 
 0.00035984 
  0.0011353 
  0.0013885 
  0.0012533 
  0.0013399 
 0.00016281 
 0.00050482 
  0.0010437 
   0.001412 
   0.001238 
  0.0013537 
 0.00060746 
 0.00096741 
  0.0014235 
 0.00021175 
 0.00040147 
  0.0011181 
  0.0012224 
  0.0013675 
  0.0014026 
  0.0007698 
 0.00082987 
   4.58e-05 
  0.0014359 
 0.00025563 
  0.0012065 
  0.0013813 
  0.0007093 
 0.00088947 
  0.0014368 
 0.00011164 
 0.00054609 
  0.0010255 
  0.0014267 
   0.000443 
  0.0011006 
  0.0014167 
 0.00029749 
 0.00064843 
 0.00094853 
  0.0011903 
   0.001395 
  0.0014386 
 0.00033926 
  0.0011737 
  0.0014087 
 0.00048443 
 0.00058725 
   0.001007 
  0.0010828 
  0.0013196 
  0.0013338 
  0.0014309 
  0.0014414 
 0.00081024 
  0.0013051 
  0.0013478 
   0.001452 
 3.2423e-05 
 0.00074995 
 0.00087008 
  0.0014525 
 7.6921e-05 
  0.0012904 
  0.0013616 
  0.0012754 
  0.0013753 
 0.00038094 
 0.00068929 
 0.00092942 
  0.0011567 
  0.0014224 
 0.00014897 
  0.0014538 
    0.00126 
  0.0013888 
 0.00052577 
  0.0010647 
  0.0014451 
 0.00062829 
 0.00098821 
  0.0014562 
  0.0012443 
  0.0014023 
 0.00042253 
  0.0011394 
  0.0014362 
 0.00023259 
 0.00027766 
 0.00079048 
 0.00085054 
  0.0012283 
  0.0014157 
  0.0014683 
 0.00018761 
 0.00073002 
 0.00091014 
  0.0014692 
 4.6948e-05 
 0.00056701 
  0.0010464 
  0.0014595 
 0.00046403 
  0.0011218 
    0.00145 
   0.000112 
 0.00031884 
  0.0012119 
  0.0014291 
 0.00066922 
 0.00096923 
  0.0014711 
  0.0013559 
  0.0013417 
  0.0013698 
 0.00036043 
  0.0011951 
  0.0013272 
  0.0013835 
  0.0014425 
 0.00050542 
  0.0011038 
  0.0013124 
   0.001397 
  0.0014639 
 0.00060813 
  0.0010277 
  0.0014739 
 0.00083088 
  0.0014842 
  3.443e-05 
 0.00077064 
  0.0008907 
  0.0012973 
  0.0014104 
  0.0014846 
 7.8018e-05 
 0.00040206 
   0.001178 
   0.001456 
 0.00071003 
 0.00095005 
  0.0012819 
  0.0014236 
 0.00015063 
  0.0014861 
 0.00054673 
  0.0010856 
  0.0014779 
 0.00025896 
  0.0012661 
  0.0014368 
 0.00064912 
  0.0010089 
  0.0014885 
 0.00044361 
  0.0011605 
  0.0014694 
 0.00021521 
 0.00029863 
  0.0012499 
  0.0014499 
 0.00081113 
 0.00087114 
  0.0015002 
 0.00075073 
 0.00093072 
  0.0015012 
 0.00058796 
  0.0010671 
   0.001492 
 0.00033994 
 0.00048507 
  0.0011427 
  0.0012333 
   0.001463 
   0.001483 
   0.001378 
  0.0013919 
 0.00069001 
 0.00098981 
  0.0013638 
  0.0014055 
  0.0015031 