# vtk DataFile Version 2.0
Steady-state stabilized finite element formulation for the 2D incopmpressible Navier Stokes equations
ASCII

DATASET UNSTRUCTURED_GRID
POINTS 20615 double
      2.2        0.41           0 
     2.19        0.41           0 
      2.2         0.4           0 
   2.1858     0.40112           0 
     2.19     0.39268           0 
      2.2        0.39           0 
     2.18        0.41           0 
     2.18     0.39268           0 
    2.175     0.40134           0 
      2.2        0.38           0 
     2.17        0.41           0 
   2.1858     0.38335           0 
     2.17     0.39268           0 
    2.165     0.40134           0 
    2.175     0.38402           0 
   2.1903     0.37519           0 
      2.2        0.37           0 
     2.16        0.41           0 
     2.18     0.37536           0 
     2.16     0.39268           0 
    2.165     0.38402           0 
   2.1858     0.36725           0 
    2.155     0.40134           0 
     2.17     0.37536           0 
     2.15        0.41           0 
      2.2        0.36           0 
    2.175      0.3667           0 
    2.155     0.38402           0 
     2.15     0.39268           0 
     2.16     0.37536           0 
     2.19     0.35804           0 
    2.145     0.40134           0 
    2.165      0.3667           0 
     2.18     0.35804           0 
      2.2        0.35           0 
     2.14        0.41           0 
     2.17     0.35804           0 
    2.145     0.38402           0 
     2.15     0.37536           0 
     2.14     0.39268           0 
    2.155      0.3667           0 
    2.185     0.34938           0 
    2.135     0.40134           0 
    2.175     0.34938           0 
     2.16     0.35804           0 
     2.14     0.37536           0 
     2.13        0.41           0 
      2.2        0.34           0 
    2.135     0.38402           0 
    2.145      0.3667           0 
    2.165     0.34938           0 
     2.19     0.34072           0 
     2.13     0.39268           0 
     2.15     0.35804           0 
     2.18     0.34072           0 
    2.125     0.40134           0 
    2.155     0.34938           0 
     2.17     0.34072           0 
     2.13     0.37536           0 
    2.135      0.3667           0 
    2.125     0.38402           0 
     2.14     0.35804           0 
   2.1858     0.33171           0 
     2.12        0.41           0 
      2.2        0.33           0 
     2.16     0.34072           0 
     2.12     0.39268           0 
    2.145     0.34938           0 
    2.175     0.33206           0 
    2.115     0.40134           0 
     2.15     0.34072           0 
    2.165     0.33206           0 
    2.125      0.3667           0 
     2.12     0.37536           0 
     2.13     0.35804           0 
     2.19      0.3234           0 
    2.115     0.38402           0 
    2.135     0.34938           0 
     2.18      0.3234           0 
     2.11        0.41           0 
      2.2        0.32           0 
    2.155     0.33206           0 
     2.11     0.39268           0 
     2.14     0.34072           0 
     2.17      0.3234           0 
    2.105     0.40134           0 
    2.115      0.3667           0 
     2.12     0.35804           0 
    2.145     0.33206           0 
     2.16      0.3234           0 
   2.1879     0.31481           0 
     2.11     0.37536           0 
    2.125     0.34938           0 
    2.105     0.38402           0 
     2.13     0.34072           0 
    2.175     0.31474           0 
      2.2        0.31           0 
      2.1        0.41           0 
     2.15      0.3234           0 
      2.1     0.39268           0 
    2.135     0.33206           0 
    2.165     0.31474           0 
     2.11     0.35804           0 
    2.105      0.3667           0 
    2.115     0.34938           0 
   2.1912     0.30542           0 
    2.095     0.40134           0 
     2.14      0.3234           0 
    2.155     0.31474           0 
      2.1     0.37536           0 
     2.12     0.34072           0 
     2.18     0.30608           0 
    2.095     0.38402           0 
    2.125     0.33206           0 
     2.17     0.30608           0 
     2.09        0.41           0 
      2.2         0.3           0 
    2.145     0.31474           0 
     2.09     0.39268           0 
     2.13      0.3234           0 
     2.16     0.30608           0 
      2.1     0.35804           0 
    2.105     0.34938           0 
    2.095      0.3667           0 
     2.11     0.34072           0 
   2.1881     0.29619           0 
    2.085     0.40134           0 
     2.09     0.37536           0 
    2.115     0.33206           0 
    2.135     0.31474           0 
     2.15     0.30608           0 
    2.175     0.29742           0 
    2.085     0.38402           0 
     2.12      0.3234           0 
    2.165     0.29742           0 
     2.08        0.41           0 
      2.2        0.29           0 
     2.14     0.30608           0 
     2.08     0.39268           0 
    2.095     0.34938           0 
    2.125     0.31474           0 
    2.155     0.29742           0 
     2.09     0.35804           0 
      2.1     0.34072           0 
    2.085      0.3667           0 
     2.18     0.28876           0 
    2.105     0.33206           0 
     2.08     0.37536           0 
     2.17     0.28876           0 
     2.11      0.3234           0 
    2.075     0.40134           0 
   2.1913       0.285           0 
     2.13     0.30608           0 
    2.145     0.29742           0 
    2.075     0.38402           0 
     2.16     0.28876           0 
    2.115     0.31474           0 
     2.07        0.41           0 
      2.2        0.28           0 
    2.085     0.34938           0 
     2.09     0.34072           0 
    2.135     0.29742           0 
     2.08     0.35804           0 
    2.095     0.33206           0 
     2.07     0.39268           0 
     2.12     0.30608           0 
     2.15     0.28876           0 
   2.1833     0.27934           0 
    2.075      0.3667           0 
    2.175      0.2801           0 
      2.1      0.3234           0 
     2.07     0.37536           0 
    2.165      0.2801           0 
    2.105     0.31474           0 
    2.065     0.40134           0 
    2.125     0.29742           0 
     2.14     0.28876           0 
    2.065     0.38402           0 
    2.155      0.2801           0 
     2.11     0.30608           0 
     2.08     0.34072           0 
    2.075     0.34938           0 
    2.085     0.33206           0 
     2.19     0.27144           0 
     2.06        0.41           0 
      2.2        0.27           0 
     2.07     0.35804           0 
     2.13     0.28876           0 
     2.09      0.3234           0 
     2.18     0.27144           0 
     2.06     0.39268           0 
    2.115     0.29742           0 
    2.145      0.2801           0 
    2.065      0.3667           0 
     2.17     0.27144           0 
    2.095     0.31474           0 
     2.06     0.37536           0 
     2.16     0.27144           0 
      2.1     0.30608           0 
    2.055     0.40134           0 
     2.12     0.28876           0 
    2.135      0.2801           0 
    2.055     0.38402           0 
     2.07     0.34072           0 
    2.075     0.33206           0 
    2.105     0.29742           0 
     2.15     0.27144           0 
    2.065     0.34938           0 
     2.08      0.3234           0 
   2.1858     0.26231           0 
     2.06     0.35804           0 
    2.085     0.31474           0 
    2.175     0.26278           0 
     2.05        0.41           0 
      2.2        0.26           0 
    2.125      0.2801           0 
     2.05     0.39268           0 
     2.11     0.28876           0 
     2.14     0.27144           0 
     2.09     0.30608           0 
    2.055      0.3667           0 
    2.165     0.26278           0 
    2.095     0.29742           0 
     2.05     0.37536           0 
    2.155     0.26278           0 
     2.13     0.27144           0 
    2.115      0.2801           0 
    2.045     0.40134           0 
    2.065     0.33206           0 
   2.1907     0.25435           0 
     2.07      0.3234           0 
     2.06     0.34072           0 
      2.1     0.28876           0 
    2.045     0.38402           0 
    2.075     0.31474           0 
    2.055     0.34938           0 
    2.145     0.26278           0 
     2.18     0.25412           0 
     2.08     0.30608           0 
     2.05     0.35804           0 
     2.17     0.25412           0 
     2.12     0.27144           0 
     2.04        0.41           0 
      2.2        0.25           0 
    2.135     0.26278           0 
    2.085     0.29742           0 
    2.105      0.2801           0 
     2.04     0.39268           0 
    2.045      0.3667           0 
     2.16     0.25412           0 
     2.09     0.28876           0 
     2.04     0.37536           0 
     2.15     0.25412           0 
     2.06      0.3234           0 
    2.055     0.33206           0 
   2.1879     0.24533           0 
    2.125     0.26278           0 
     2.11     0.27144           0 
    2.035     0.40134           0 
    2.065     0.31474           0 
     2.05     0.34072           0 
     2.07     0.30608           0 
    2.045     0.34938           0 
    2.175     0.24546           0 
     2.14     0.25412           0 
    2.095      0.2801           0 
    2.035     0.38402           0 
    2.075     0.29742           0 
     2.04     0.35804           0 
    2.165     0.24546           0 
    2.115     0.26278           0 
     2.03        0.41           0 
      2.2        0.24           0 
     2.08     0.28876           0 
    2.035      0.3667           0 
    2.155     0.24546           0 
     2.13     0.25412           0 
      2.1     0.27144           0 
     2.03     0.39268           0 
     2.05      0.3234           0 
[...]
POINT_DATA 20615
SCALARS pressure double
LOOKUP_TABLE default
 1.8329e-05 
 6.8369e-05 
 1.8221e-05 
 9.1281e-05 
 6.8289e-05 
 1.8491e-05 
 0.00012366 
 0.00012383 
 0.00015163 
 1.6516e-05 
 0.00017961 
 9.0728e-05 
 0.00017995 
 0.00020781 
 0.00015224 
 6.5609e-05 
 1.6839e-05 
 0.00023586 
 0.00012469 
 0.00023626 
 0.00020857 
 9.1289e-05 
 0.00026413 
 0.00018093 
 0.00029219 
 2.2152e-05 
 0.00015296 
 0.00026497 
 0.00029265 
 0.00023734 
 6.9291e-05 
  0.0003205 
  0.0002096 
 0.00012479 
 2.3751e-05 
 0.00034856 
 0.00018157 
 0.00032146 
 0.00029393 
 0.00034908 
 0.00026636 
 9.6653e-05 
 0.00037688 
 0.00015335 
 0.00023863 
 0.00035058 
 0.00040491 
 2.5277e-05 
 0.00037799 
  0.0003232 
 0.00021071 
 6.9436e-05 
 0.00040551 
 0.00029575 
 0.00012504 
 0.00043323 
 0.00026814 
  0.0001826 
 0.00040725 
 0.00038008 
 0.00043449 
 0.00035288 
 9.1559e-05 
  0.0004612 
 2.1752e-05 
 0.00024035 
 0.00046188 
 0.00032557 
 0.00015446 
 0.00048949 
  0.0002981 
  0.0002124 
 0.00043692 
 0.00046387 
 0.00040998 
 6.8099e-05 
 0.00049092 
 0.00038298 
 0.00012653 
 0.00051738 
 2.9673e-05 
  0.0002704 
 0.00051814 
 0.00035582 
 0.00018422 
 0.00054561 
 0.00049368 
 0.00046702 
 0.00032845 
  0.0002424 
 7.8816e-05 
 0.00052039 
 0.00044033 
 0.00054721 
 0.00041351 
 0.00015531 
 2.9105e-05 
  0.0005734 
 0.00030079 
 0.00057425 
 0.00038649 
 0.00021385 
 0.00052396 
 0.00055031 
 0.00049759 
 6.3394e-05 
 0.00060155 
 0.00035919 
  0.0002727 
 0.00057674 
 0.00047112 
 0.00012613 
 0.00060332 
 0.00044448 
 0.00018454 
  0.0006292 
 3.6415e-05 
 0.00033153 
 0.00063014 
 0.00041757 
 0.00024412 
 0.00058073 
 0.00055472 
 0.00060676 
 0.00052863 
 7.8862e-05 
 0.00065725 
 0.00063289 
 0.00050238 
 0.00039032 
 0.00030343 
  0.0001546 
  0.0006592 
 0.00047588 
 0.00021521 
 0.00068474 
 3.7553e-05 
 0.00036265 
 0.00068576 
 0.00061167 
 0.00044906 
 0.00027494 
  0.0006373 
 0.00058598 
 0.00066297 
 0.00012396 
 0.00056015 
 0.00068877 
 0.00018652 
  0.0005341 
 0.00071267 
 6.6675e-05 
 0.00042183 
 0.00033454 
 0.00071478 
 0.00024617 
 0.00050773 
 0.00073997 
 3.3383e-05 
 0.00066839 
 0.00064313 
 0.00039414 
 0.00069361 
 0.00061776 
 0.00074108 
 0.00048096 
 0.00030597 
 0.00010225 
 0.00071891 
 0.00015905 
 0.00059217 
 0.00074435 
 0.00021691 
 0.00056628 
 0.00076774 
 0.00045372 
 0.00036593 
 0.00077003 
 0.00027678 
    0.00054 
 0.00070004 
 0.00072483 
 0.00067514 
 6.7181e-05 
 0.00079483 
 4.0153e-05 
 0.00074962 
 0.00042596 
 0.00065006 
 0.00012254 
 0.00079602 
 0.00051326 
 0.00033712 
  0.0007745 
 0.00018544 
 0.00062468 
 0.00079956 
 0.00024657 
 0.00059893 
 0.00082241 
 0.00048599 
  0.0003976 
 0.00082488 
 0.00075665 
 0.00073227 
 0.00057272 
 0.00030756 
 0.00078096 
 0.00070771 
  8.478e-05 
 0.00080528 
 0.00068289 
 0.00015311 
 0.00084926 
 2.4843e-05 
 0.00045813 
 0.00085055 
 0.00054598 
 0.00036858 
 0.00065769 
 0.00082972 
 0.00021563 
 0.00063205 
 0.00085436 
 0.00027735 
 0.00042963 
 0.00051865 
 0.00087664 
 0.00078909 
 5.7209e-05 
  0.0007651 
 0.00081292 
 0.00060588 
 0.00087929 
 0.00074085 
  0.0008367 
 0.00033893 
 0.00012297 
 0.00071625 
 0.00086053 
  0.0001847 
 0.00049069 
 0.00090322 
 3.2391e-05 
  0.0004005 
 0.00069121 
 0.00057912 
  0.0009046 
 0.00088449 
 0.00024673 
 0.00066565 
 0.00090869 
 0.00030873 
 0.00082215 
 0.00084554 
 6.9439e-05 
 0.00046209 
 0.00055173 
 0.00093037 
 0.00079853 
  0.0008688 
 0.00077456 
 0.00089202 
 0.00015355 
 0.00037078 
  0.0006395 
  0.0009332 
 0.00075017 
 0.00091531 
 0.00021578 
 0.00052369 
 0.00095665 
 3.2528e-05 
 0.00072525 
 0.00093877 
 0.00027807 
 0.00043287 
 0.00061271 
 0.00095813 
 0.00087884 
 0.00034052 
 0.00069975 
 0.00096249 
 0.00085587 
 0.00090159 
 5.9957e-05 
 0.00083257 
 0.00092423 
 0.00012249 
   0.000495 
 0.00058526 
 0.00098353 
 0.00080886 
 0.00094686 
 0.00018443 
 0.00040309 
 0.00067361 
 0.00098656 
 0.00096959 
 0.00078464 
 0.00024694 
 0.00055715 
  0.0010095 
 2.1292e-05 
  0.0003098 
 0.00075984 
 0.00099251 
 0.00046572 
  0.0010111 
 0.00064679 
  0.0009351 
 0.00091282 
 8.4082e-05 
 0.00095718 
 0.00089024 
 0.00037281 
 0.00073438 
  0.0010157 
 0.00097917 
 0.00086726 
 0.00015202 
 0.00052841 
 0.00021526 
 0.00061929 
  0.0010361 
  0.0010012 
 0.00084377 
 0.00043592 
 0.00070824 
  0.0010393 
 0.00027862 
 0.00081971 
  0.0010233 
 0.00034211 
 0.00059113 
  0.0010617 
 3.0647e-05 
 0.00079499 
  0.0010456 
 0.00096934 
 0.00049912 
 0.00068139 
  0.0010634 
 0.00099088 
 0.00094752 
 6.1896e-05 
  0.0010122 
  0.0009253 
 0.00011974 
 0.00018308 
  0.0010335 
  0.0009026 
 0.00040569 
 0.00076957 
  0.0010683 
  0.0002471 
 0.00087932 
  0.0010549 
 0.00056238 
   0.001088 
 0.00065386 
 0.00046936 
 0.00074343 
  0.0010914 
 0.00031111 
 0.00085539 
  0.0010764 
  0.0010254 
  0.0010043 
 0.00037514 
 0.00083075 
  0.0010461 
  0.0010981 
 0.00098295 
 8.8713e-05 
  0.0006257 
  0.0011132 
 2.7313e-05 
 0.00053312 
   0.001115 
  0.0010668 
 0.00096107 
 0.00071658 
 0.00015127 
 0.00021552 
  0.0010873 
 0.00093863 
 0.00043924 
 0.00080537 
  0.0011202 
 0.00027999 
   0.001108 
 0.00091554 
 0.00059698 
 0.00068906 
  0.0011391 
 0.00034442 
 0.00050346 
 0.00077925 
  0.0011427 
 0.00089173 
  0.0011288 
  0.0010607 
 6.0373e-05 
  0.0010809 
  0.0010401 
 0.00012022 
  0.0011008 
  0.0010191 
 0.00040891 
 0.00086716 
  0.0011499 
 0.00018422 
 0.00066093 
  0.0011639 
 2.2747e-05 
  0.0011206 
 0.00099759 
 0.00056781 
 0.00075242 
  0.0011658 
 0.00024895 
  0.0011404 
 0.00097539 
 0.00047353 
 0.00084183 
  0.0011713 
 0.00031368 
 0.00095246 
  0.0011603 
 0.00063229 
 0.00072493 
  0.0011895 
 0.00037849 
 0.00092877 
  0.0011804 
 0.00053831 
 0.00081576 
  0.0011165 
  0.0011933 
  0.0010968 
  0.0011358 
  0.0010768 
 8.1478e-05 
  0.0001535 
  0.0011548 
  0.0010561 
 0.00021825 
 0.00044345 
  0.0011738 
 0.00090429 
  0.0012008 
  0.0010349 
 0.00069688 
  0.0012138 
 5.0503e-06 
 0.00060325 
 0.00078897 
  0.0012158 
 0.00028306 
  0.0011928 
  0.0010129 
 0.00050859 
 0.00087903 
  0.0012217 
 0.00034808 
  0.0012119 
 0.00099015 
 0.00066836 
 0.00076156 
   0.001239 
  0.0011529 
 5.3078e-05 
  0.0011716 
  0.0011339 
 0.00012243 
 0.00041331 
    0.00119 
 0.00096658 
  0.0012313 
  0.0011142 
 0.00057395 
 0.00085301 
   0.001243 
  0.0001876 
  0.0012082 
   0.001094 
 0.00025245 
  0.0012263 
   0.001073 
 0.00047877 
   0.001251 
  0.0009422 
 0.00073362 
  0.0012628 
 1.8942e-06 
 0.00031765 
 0.00063951 
  0.0008263 
  0.0012444 
  0.0012649 
  0.0010512 
 0.00054448 
   0.000917 
  0.0012711 
 0.00038314 
  0.0012627 
  0.0010286 
  8.199e-05 
  0.0011904 
  0.0012084 
  0.0012261 
  0.0011718 
  0.0001557 
 0.00070527 
 0.00079899 
  0.0012435 
  0.0012875 
  0.0011526 
  0.0004489 
  0.0010052 
  0.0012812 
 0.00022142 
 0.00061043 
 0.00089106 
  0.0012607 
  0.0012918 
  0.0011327 
 0.00028706 
  0.0012779 
   0.001112 
 0.00051493 
  0.0009809 
  0.0013002 
  0.0007712 
  0.0013109 
  8.968e-06 
 0.00035291 
  0.0012951 
  0.0010904 
 0.00067663 
 0.00086445 
  0.0013131 
 0.00058123 
 0.00095579 
  0.0013196 
  0.0012463 
 5.9363e-05 
 0.00041899 
  0.0013125 
   0.001068 
  0.0012288 
  0.0012633 
 0.00012336 
  0.0012799 
  0.0012107 
 0.00018963 
  0.0012962 
  0.0011919 
 0.00074304 
 0.00083727 
  0.0013351 
 0.00048533 
  0.0010447 
  0.0013303 
 0.00025611 
  0.0013124 
  0.0011724 
 0.00064779 
 0.00092994 
  0.0013395 
 0.00032251 
  0.0013286 
  0.0011519 
 0.00055195 
  0.0010205 
  0.0013484 
 0.00038901 
  0.0013449 
  0.0011305 
 0.00080965 
  0.0013579 
 7.3005e-06 
 0.00071462 
 0.00090344 
  0.0013602 
  0.0013015 
  0.0012852 
 9.1772e-05 
  0.0013173 
  0.0012683 
  0.0001579 
 0.00045569 
 0.00061885 
 0.00099543 
  0.0011082 
  0.0013328 
  0.0013614 
   0.001367 
  0.0012506 
 0.00022494 
  0.0013481 
  0.0012322 
 0.00029196 
 0.00078168 
 0.00087641 
  0.0013632 
  0.0013816 
   0.001213 
 0.00052262 
   0.001085 
  0.0013783 
 0.00068603 
 0.00096967 
  0.0013863 
 0.00035892 
  0.0013784 
  0.0011927 
 0.00058983 
  0.0010608 
  0.0013956 
 0.00042598 
  0.0011715 
  0.0013937 
  0.0013408 
 6.1779e-05 
 0.00084894 
  0.0014038 
 3.3179e-06 
  0.0013559 
  0.0013251 
 0.00012632 
 0.00075347 
 0.00094328 
  0.0013706 
  0.0014062 
  0.0013088 
 0.00019366 
  0.0013849 
  0.0012916 
 0.00049324 
  0.0011493 
  0.0014093 
 0.00065732 
  0.0010359 
  0.0014134 
 0.00026124 
   0.001399 
  0.0012736 
 0.00032869 
  0.0014131 
  0.0012545 
 0.00056075 
 0.00082116 
 0.00091637 
  0.0011261 
  0.0014252 
  0.0014269 
  0.0007251 
  0.0010102 
  0.0014318 
 0.00039615 
  0.0012345 
  0.0014272 
 0.00062853 
  0.0011021 
  0.0014416 
  0.0013957 
  0.0013813 
  0.0014095 
  0.0013662 
 0.00046375 
  0.0012134 
  0.0014415 
 8.9458e-05 
 0.00016228 
  0.0014229 
  0.0013504 
 0.00088905 
  0.0014485 
-2.6824e-06 
 0.00079314 
 0.00098391 
   0.001451 
 0.00023037 
   0.001436 
  0.0013336 
 0.00053156 
  0.0011912 
   0.001456 
 0.00029826 
  0.0006966 
  0.0010772 
   0.001449 
  0.0014585 
  0.0013159 
 0.00036612 
  0.0012971 
  0.0014619 
 0.00059964 
  0.0011681 
   0.001471 
 0.00086142 
  0.0009571 
   0.001471 
 0.00043408 
 0.00076495 
  0.0010515 
  0.0012771 
  0.0014749 
  0.0014762 
  0.0014367 
 6.3377e-05 
  0.0014497 
   0.001423 
 0.00013034 
  0.0014622 
  0.0014085 
 0.00066798 
   0.001144 
  0.0014864 
 0.00019923 
 0.00050222 
  0.0012561 
  0.0014743 
  0.0014881 
  0.0013931 
 0.00026756 
 0.00092989 
  0.0014861 
  0.0014919 
 -2.066e-06 
  0.0013767 
 0.00083355 
  0.0010253 
  0.0014946 
 0.00033582 
 0.00057059 
   0.001234 
  0.0013592 
  0.0014978 
  0.0015016 
  0.0007366 
  0.0011191 
  0.0015025 
 0.00040415 
  0.0013405 
  0.0015096 
 0.00063921 
  0.0012108 
  0.0015155 
 0.00090236 
 0.00099851 
  0.0015138 
 7.8385e-05 
 0.00047263 
  0.0013206 
  0.0015214 
  0.0014912 
  0.0014789 
 0.00080547 
  0.0010935 
  0.0015192 
  0.0015028 
  0.0014658 
 0.00016766 
  0.0015139 
  0.0014519 
 0.00023648 
  0.0015246 
  0.0014369 
 0.00070808 
  0.0011867 
  0.0015299 
 0.00054131 
  0.0012996 
  0.0015334 
 0.00030513 
  0.0014207 
  0.0015352 
 0.00097135 
   0.001534 
-1.8152e-06 
 0.00087457 
  0.0010672 
  0.0015368 
 0.00037385 
  0.0014034 
  0.0015456 
 0.00061021 
  0.0012773 
  0.0015458 
  0.0007772 
  0.0011617 
   0.001545 
 0.00044269 
  0.0013847 
   0.001556 
  0.0015339 
 0.00067935 
  0.0012541 
  0.0015587 
  0.0015447 
  0.0015224 
  6.098e-05 
  0.0001355 
 0.00094386 
  0.0010405 
  0.0015549 
  0.0015552 
  0.0015099 
 0.00051171 
  0.0013648 
  0.0015666 
 0.00020484 
  0.0015645 
  0.0014964 
 0.00084655 
   0.001136 
  0.0015609 
 0.00027395 
  0.0015739 
  0.0014817 
 0.00058092 
 0.00074871 
  0.0012298 
  0.0013436 
  0.0015775 
  0.0015721 
 0.00034308 
  0.0014657 
   0.001583 
  0.0010133 
  0.0015746 
-2.9513e-06 
 0.00041231 
 0.00091609 
  0.0011097 
  0.0014484 
  0.0015775 
  0.0015921 
 0.00065033 
  0.0013213 
  0.0015887 
 0.00081829 
  0.0012047 
  0.0015862 
 0.00048169 
  0.0014297 
  0.0016012 
 9.7534e-05 
   0.001588 
   0.001578 
  0.0015973 
  0.0015671 
 0.00017267 
  0.0016059 
  0.0015551 
 0.00071994 
  0.0012978 
  0.0016004 
 0.00024219 
 0.00055123 
 0.00098579 
  0.0010828 
  0.0014096 
   0.001614 
  0.0015951 
  0.0016105 
  0.0015419 
 0.00088805 
  0.0011789 
   0.001601 
 0.00031175 
  0.0016219 
  0.0015274 
 0.00062094 
  0.0013882 
  0.0016201 
 0.00038141 
 0.00078974 
  0.0012733 
  0.0015115 
  0.0016296 
  0.0016128 
 0.00045118 
  0.0010556 
   0.001494 
  0.0016372 
  0.0016138 
 2.9722e-06 
 0.00095796 
  0.0011524 
  0.0016168 
 0.00069081 
  0.0013656 
  0.0016301 
  0.0016327 
 7.3965e-05 
 0.00085971 
   0.001248 
  0.0016234 
  0.0016411 
  0.0016258 
 0.00052107 
  0.0014751 
   0.001645 
 0.00013984 
  0.0016487 
   0.001613 
  0.0002098 
  0.0016014 
  0.0016557 
  0.0002798 
 0.00076085 
  0.0013418 
  0.0015884 
  0.0016623 
  0.0016407 
 0.00059109 
  0.0014548 
   0.001653 
   0.001028 
  0.0011255 
  0.0016335 
 0.00034993 
  0.0015739 
  0.0016686 
 0.00092982 
   0.001222 
  0.0016397 
 0.00042011 
  0.0015578 
  0.0016748 
 0.00066126 
  0.0014331 
  0.0016613 
 0.00083103 
  0.0013171 
  0.0016519 
 0.00049037 
  0.0015402 
   0.001681 
  0.0010981 
  0.0016513 
 5.9732e-06 
 0.00012111 
      0.001 
  0.0011954 
  0.0016787 
  0.0016863 
  0.0016544 
 0.00073155 
  0.0014101 
    0.00167 
   0.001693 
    0.00167 
 0.00017703 
    0.00166 
  0.0016989 
 0.00056073 
 0.00090133 
  0.0012915 
  0.0015209 
  0.0016873 
  0.0016638 
 0.00024727 
  0.0016486 
  0.0017043 
 0.00031789 
  0.0016356 
  0.0017093 
 0.00080195 
   0.001386 
  0.0016794 
  0.0006312 
  0.0015002 
  0.0016939 
 0.00038847 
  0.0010703 
  0.0011682 
   0.001621 
   0.001714 
  0.0016702 
 6.7486e-05 
 0.00097172 
  0.0012652 
  0.0016766 
  0.0004591 
  0.0016046 
  0.0017186 
 0.00070176 
   0.001478 
  0.0017009 
 0.00087244 
  0.0013609 
  0.0016894 
 0.00052981 
  0.0015865 
  0.0017329 
  0.0017233 
   0.001726 
  0.0017388 
 0.00014526 
  0.0017177 
  0.0017437 
  0.0011406 
   0.001687 
 1.1497e-05 
 0.00021385 
  0.0010422 
  0.0012383 
  0.0017079 
  0.0017479 
  0.0016903 
  0.0007724 
  0.0014546 
  0.0017083 
 0.00028529 
 0.00060059 
  0.0015668 
  0.0016965 
  0.0017516 
  0.0017281 
 0.00094301 
   0.001335 
  0.0017001 
 0.00035624 
  0.0016834 
  0.0017548 
 0.00084311 
    0.00143 
  0.0017163 
 0.00067144 
  0.0015455 
  0.0017333 
 0.00042724 
  0.0016684 
  0.0017579 
  0.0011127 
  0.0012109 
  0.0017051 
 6.8655e-05 
  0.0010136 
  0.0013084 
  0.0017118 
  0.0004983 
  0.0016516 
  0.0017609 
 0.00074233 
  0.0015228 
  0.0017388 
 0.00019122 
 0.00091386 
  0.0014045 
  0.0017809 
   0.001786 
  0.0017251 
  0.0017744 
    0.00179 
 0.00056941 
  0.0016329 
  0.0017663 
  0.0017931 
   0.001764 
  0.0002524 
  0.0017566 
  0.0017955 
  0.0011831 
   0.001721 
  1.597e-05 
 0.00081326 
  0.0010842 
  0.0012812 
  0.0014989 
  0.0017244 
  0.0017448 
 0.00012777 
  0.0003235 
   0.001745 
  0.0017974 
 0.00064055 
  0.0016126 
  0.0017673 
 0.00098463 
  0.0013782 
  0.0017346 
  0.0003948 
  0.0017314 
  0.0017989 
 0.00046622 
 0.00071171 
 0.00088421 
  0.0014738 
  0.0015907 
  0.0017159 
  0.0018002 
  0.0017709 
  0.0017515 
  0.0011548 
  0.0012535 
  0.0017381 
 7.1137e-05 
 0.00053766 
  0.0010554 
  0.0013513 
  0.0016985 
  0.0018016 
  0.0017451 
  0.0018345 
  0.0018299 
  0.0018378 
 0.00078287 
  0.0015674 
  0.0018236 
  0.0018399 
  0.0017749 
 0.00021826 
 0.00095516 
  0.0014479 
  0.0018156 
  0.0018412 
   0.001759 
 0.00060909 
  0.0016791 
   0.001803 
    0.00029 
  0.0018056 
  0.0018417 
 0.00036174 
  0.0012254 
  0.0017936 
  0.0018417 
   0.001753 
 2.2157e-05 
 0.00085403 
  0.0015428 
  0.0017795 
  0.0011261 
  0.0013238 
  0.0017566 
 0.00013016 
 0.00068051 
  0.0016581 
  0.0018047 
 0.00043359 
  0.0017795 
  0.0018414 
  0.0010261 
  0.0014212 
  0.0017672 
 0.00050537 
  0.0017633 
  0.0018409 
 0.00075192 
  0.0016355 
  0.0018067 
 0.00092517 
  0.0015173 
  0.0017848 
  0.0011968 
  0.0012958 
  0.0018842 
   0.001887 
  0.0017692 
 7.3618e-05 
  0.0018798 
  0.0018883 
  0.0005771 
   0.001745 
  0.0018405 
 0.00018464 
   0.001097 
  0.0013939 
  0.0018736 
  0.0018884 
  0.0017765 
 0.00025607 
 0.00082329 
  0.0016115 
  0.0018653 
  0.0018877 
  0.0018092 
 0.00099626 
  0.0014909 
  0.0017909 
 0.00032821 
 0.00064878 
  0.0017249 
  0.0018549 
  0.0018863 
  0.0018402 
 0.00040052 
  0.0018422 
  0.0018844 
  0.0012673 
  0.0017831 
 2.8441e-05 
 0.00089463 
  0.0015863 
  0.0018123 
  0.0011677 
  0.0013661 
  0.0017868 
 0.00013209 
 0.00072041 
   0.001703 
  0.0018402 
 0.00047262 
  0.0018273 
  0.0018822 
  0.0010673 
  0.0014638 
  0.0017978 
 0.00054462 
  0.0018102 
  0.0018799 
 0.00079201 
  0.0016796 
  0.0018406 
  0.0009659 
  0.0015603 
  0.0019373 
  0.0018161 
  0.0019348 
   0.001938 
  0.0019304 
  0.0019373 
   0.000221 
   0.001924 
  0.0019354 
 0.00061654 
  0.0012384 
  0.0013377 
   0.001791 
  0.0018776 
  0.0017982 
  7.514e-05 
 0.00029452 
  0.0011382 
  0.0014361 
  0.0019152 
  0.0019327 
  0.0018057 
 0.00086354 
   0.001655 
  0.0018415 
 0.00036735 
   0.001904 
  0.0019292 
 0.00068841 
  0.0010371 
  0.0015334 
    0.00177 
  0.0018755 
  0.0018207 
 0.00043953 
  0.0018905 
  0.0019253 
   0.000935 
  0.0013089 
  0.0016293 
  0.0018109 
 3.5054e-05 
   0.001843 
 0.00076021 
  0.0017473 
  0.0018738 
 0.00051175 
   0.001209 
  0.0014079 
  0.0018746 
  0.0019212 
  0.0018148 
 0.00013222 
  0.0011082 
  0.0015059 
  0.0018263 
 0.00058389 
  0.0018565 
  0.0019885 
  0.0019889 
   0.001917 
   0.001986 
  0.0019876 
 0.00026718 
 0.00083194 
  0.0017232 
  0.0019814 
  0.0019848 
  0.0018725 
  0.0010064 
  0.0016027 
  0.0018453 
  0.0019744 
  0.0019808 
 0.00065596 
  0.0018363 
  0.0019128 
 0.00033569 
  0.0012797 
  0.0013793 
  0.0019648 
   0.001976 
 7.7461e-05 
   0.001825 
  0.0011791 
  0.0014779 
  0.0018328 
 0.00019392 
 0.00040621 
 0.00090359 
  0.0016978 
  0.0019527 
  0.0019704 
  0.0018717 
 0.00072796 
  0.0018143 
  0.0019089 
  0.0010776 
  0.0015754 
  0.0018484 
 0.00047859 
  0.0019381 
  0.0019645 
  0.0005509 
 0.00097514 
  0.0016716 
  0.0019211 
  0.0019583 
  0.0018716 
 0.00079987 
  0.0013501 
  0.0017908 
  0.0019053 
  0.0018366 
 4.2311e-05 
  0.0012499 
  0.0014494 
  0.0018405 
 0.00013474 
  0.0020407 
  0.0020403 
  0.0020391 
  0.0011487 
  0.0015475 
  0.0020376 
  0.0020356 
  0.0018525 
 0.00062316 
  0.0019019 
  0.0019521 
  0.0020324 
  0.0020307 
 0.00028214 
  0.0008717 
  0.0017659 
  0.0019022 
  0.0020245 
  0.0020245 
  0.0010466 
  0.0016445 
  0.0018722 
 0.00037007 
 0.00069533 
  0.0018807 
  0.0020139 
  0.0020175 
   0.001946 
  0.0013205 
  0.0014204 
 8.0081e-05 
  0.0018495 
 0.00044528 
  0.0020007 
  0.0020098 
  0.0012197 
  0.0015192 
  0.0018576 
  0.0001963 
 0.00094344 
    0.00174 
  0.0018997 
 0.00076742 
  0.0018578 
  0.0019401 
 0.00051774 
  0.0011179 
  0.0016168 
  0.0019848 
  0.0020017 
  0.0018738 
 0.00059012 
  0.0019666 
  0.0019934 
 0.00083942 
  0.0010151 
  0.0017132 
  0.0018334 
  0.0020932 
  0.0020915 
  0.0019346 
  0.0018979 
  0.0013909 
  0.0020925 
  0.0020877 
  0.0018598 
  5.071e-05 
  0.0012904 
  0.0014903 
   0.001864 
 0.00013649 
  0.0020891 
   0.002082 
   0.002083 
  0.0020748 
 0.00066243 
   0.001189 
  0.0015886 
  0.0019463 
  0.0019851 
 0.00026164 
  0.0018763 
   0.002074 
  0.0020665 
 0.00091133 
  0.0018078 
  0.0019297 
  0.0010865 
  0.0016857 
  0.0018969 
  0.0020622 
  0.0020572 
 0.00073466 
   0.001924 
   0.001977 
 0.00040842 
 0.00048563 
   0.001361 
   0.001461 
  0.0020476 
  0.0020472 
  0.0018716 
 0.00032871 
  0.0012599 
  0.0015599 
    0.00188 
 8.4301e-05 
 0.00098315 
  0.0017814 
  0.0019254 
 0.00080681 
  0.0019002 
  0.0019691 
 0.00019833 
 0.00055714 
  0.0020305 
  0.0020369 
  0.0011578 
  0.0016577 
  0.0018968 
  0.0021445 
  0.0021459 
  0.0021407 
 0.00062934 
   0.002011 
  0.0021445 
  0.0021346 
  0.0020265 
 0.00087888 
  0.0018751 
  0.0021402 
  0.0021267 
  0.0019617 
  0.0010548 
  0.0017541 
  0.0019218 
  0.0014313 
  0.0018806 
 5.9696e-05 
  0.0013306 
  0.0015308 
  0.0021329 
  0.0021172 
  0.0018849 
 0.00014051 
 0.00070163 
  0.0019895 
   0.002016 
  0.0012289 
  0.0016292 
  0.0021226 
  0.0021065 
 0.00026551 
  0.0018977 
 0.00095087 
   0.001849 
  0.0019548 
 0.00045542 
  0.0021093 
  0.0020949 
  0.0011263 
  0.0017263 
   0.001919 
 0.00077391 
  0.0019663 
  0.0020058 
 0.00037932 
 0.00052424 
  0.0020933 
  0.0020826 
  0.0014011 
  0.0015012 
  0.0018911 
  0.0012998 
  0.0016002 
  0.0018998 
  0.0010228 
   0.001822 
  0.0019486 
 0.00059593 
 0.00084613 
  0.0019417 
  0.0020749 
    0.00207 
  0.0019958 
  0.0021978 
  0.0021943 
  0.0011976 
   0.001698 
  0.0021984 
  0.0021882 
  0.0019172 